<?xml version="1.0" encoding="ISO-8859-1"?>
<modeling>
 <generator>
  <i name="program" type="string">vasp </i>
  <i name="version" type="string">5.3.5  </i>
  <i name="subversion" type="string">31Mar14 (build May 11 2014 22:35:22) complex                          parallel </i>
  <i name="platform" type="string">LinuxIFC </i>
  <i name="date" type="string">2014 06 10 </i>
  <i name="time" type="string">14:37:56 </i>
 </generator>
 <incar>
  <i type="string" name="SYSTEM"> MoS2</i>
  <i type="string" name="PREC">normal</i>
  <i type="string" name="ALGO"> Exact</i>
  <i type="int" name="NBANDS">   108</i>
  <i type="int" name="NEDOS">  2000</i>
  <i type="int" name="ISMEAR">     0</i>
  <i name="SIGMA">      0.01000000</i>
  <i type="logical" name="LOPTICS"> T  </i>
  <i name="CSHIFT">      0.10000000</i>
  <i type="string" name="GGA"> PE</i>
  <i name="CSHIFT">      0.10000000</i>
 </incar>
 <kpoints>
  <generation param="Gamma">
   <v type="int" name="divisions">      40       40        1 </v>
   <v name="usershift">      0.00000000       0.00000000       0.00000000 </v>
   <v name="genvec1">      0.02500000       0.00000000       0.00000000 </v>
   <v name="genvec2">      0.00000000       0.02500000       0.00000000 </v>
   <v name="genvec3">      0.00000000       0.00000000       1.00000000 </v>
   <v name="shift">      0.00000000       0.00000000       0.00000000 </v>
  </generation>
  <varray name="kpointlist" >
   <v>       0.00000000       0.00000000       0.00000000 </v>
   <v>       0.02500000       0.00000000       0.00000000 </v>
   <v>       0.05000000       0.00000000       0.00000000 </v>
   <v>       0.07500000       0.00000000       0.00000000 </v>
   <v>       0.10000000       0.00000000       0.00000000 </v>
   <v>       0.12500000       0.00000000       0.00000000 </v>
   <v>       0.15000000       0.00000000       0.00000000 </v>
   <v>       0.17500000       0.00000000       0.00000000 </v>
   <v>       0.20000000       0.00000000       0.00000000 </v>
   <v>       0.22500000       0.00000000       0.00000000 </v>
   <v>       0.25000000       0.00000000       0.00000000 </v>
   <v>       0.27500000       0.00000000       0.00000000 </v>
   <v>       0.30000000       0.00000000       0.00000000 </v>
   <v>       0.32500000       0.00000000       0.00000000 </v>
   <v>       0.35000000       0.00000000       0.00000000 </v>
   <v>       0.37500000       0.00000000       0.00000000 </v>
   <v>       0.40000000       0.00000000       0.00000000 </v>
   <v>       0.42500000      -0.00000000       0.00000000 </v>
   <v>       0.45000000       0.00000000       0.00000000 </v>
   <v>       0.47500000      -0.00000000       0.00000000 </v>
   <v>       0.50000000       0.00000000       0.00000000 </v>
   <v>       0.02500000       0.02500000       0.00000000 </v>
   <v>       0.05000000       0.02500000       0.00000000 </v>
   <v>       0.07500000       0.02500000       0.00000000 </v>
   <v>       0.10000000       0.02500000       0.00000000 </v>
   <v>       0.12500000       0.02500000       0.00000000 </v>
   <v>       0.15000000       0.02500000       0.00000000 </v>
   <v>       0.17500000       0.02500000       0.00000000 </v>
   <v>       0.20000000       0.02500000       0.00000000 </v>
   <v>       0.22500000       0.02500000       0.00000000 </v>
   <v>       0.25000000       0.02500000       0.00000000 </v>
   <v>       0.27500000       0.02500000       0.00000000 </v>
   <v>       0.30000000       0.02500000       0.00000000 </v>
   <v>       0.32500000       0.02500000       0.00000000 </v>
   <v>       0.35000000       0.02500000       0.00000000 </v>
   <v>       0.37500000       0.02500000       0.00000000 </v>
   <v>       0.40000000       0.02500000       0.00000000 </v>
   <v>       0.42500000       0.02500000       0.00000000 </v>
   <v>       0.45000000       0.02500000       0.00000000 </v>
   <v>       0.47500000       0.02500000       0.00000000 </v>
   <v>       0.50000000       0.02500000       0.00000000 </v>
   <v>      -0.47500000       0.02500000       0.00000000 </v>
   <v>      -0.45000000       0.02500000       0.00000000 </v>
   <v>      -0.42500000       0.02500000       0.00000000 </v>
   <v>      -0.40000000       0.02500000       0.00000000 </v>
   <v>      -0.37500000       0.02500000       0.00000000 </v>
   <v>      -0.35000000       0.02500000       0.00000000 </v>
   <v>      -0.32500000       0.02500000       0.00000000 </v>
   <v>      -0.30000000       0.02500000       0.00000000 </v>
   <v>      -0.27500000       0.02500000       0.00000000 </v>
   <v>      -0.25000000       0.02500000       0.00000000 </v>
   <v>      -0.22500000       0.02500000       0.00000000 </v>
   <v>      -0.20000000       0.02500000       0.00000000 </v>
   <v>      -0.17500000       0.02500000       0.00000000 </v>
   <v>      -0.15000000       0.02500000       0.00000000 </v>
   <v>      -0.12500000       0.02500000       0.00000000 </v>
   <v>      -0.10000000       0.02500000       0.00000000 </v>
   <v>      -0.07500000       0.02500000       0.00000000 </v>
   <v>      -0.05000000       0.02500000       0.00000000 </v>
   <v>      -0.02500000       0.02500000       0.00000000 </v>
   <v>       0.05000000       0.05000000       0.00000000 </v>
   <v>       0.07500000       0.05000000       0.00000000 </v>
   <v>       0.10000000       0.05000000       0.00000000 </v>
   <v>       0.12500000       0.05000000       0.00000000 </v>
   <v>       0.15000000       0.05000000       0.00000000 </v>
   <v>       0.17500000       0.05000000       0.00000000 </v>
   <v>       0.20000000       0.05000000       0.00000000 </v>
   <v>       0.22500000       0.05000000       0.00000000 </v>
   <v>       0.25000000       0.05000000       0.00000000 </v>
   <v>       0.27500000       0.05000000       0.00000000 </v>
   <v>       0.30000000       0.05000000       0.00000000 </v>
   <v>       0.32500000       0.05000000       0.00000000 </v>
   <v>       0.35000000       0.05000000       0.00000000 </v>
   <v>       0.37500000       0.05000000       0.00000000 </v>
   <v>       0.40000000       0.05000000       0.00000000 </v>
   <v>       0.42500000       0.05000000       0.00000000 </v>
   <v>       0.45000000       0.05000000       0.00000000 </v>
   <v>       0.47500000       0.05000000       0.00000000 </v>
   <v>       0.50000000       0.05000000       0.00000000 </v>
   <v>      -0.47500000       0.05000000       0.00000000 </v>
   <v>      -0.45000000       0.05000000       0.00000000 </v>
   <v>      -0.42500000       0.05000000       0.00000000 </v>
   <v>      -0.40000000       0.05000000       0.00000000 </v>
   <v>      -0.37500000       0.05000000       0.00000000 </v>
   <v>      -0.35000000       0.05000000       0.00000000 </v>
   <v>      -0.32500000       0.05000000       0.00000000 </v>
   <v>      -0.30000000       0.05000000       0.00000000 </v>
   <v>      -0.27500000       0.05000000       0.00000000 </v>
   <v>      -0.25000000       0.05000000       0.00000000 </v>
   <v>      -0.22500000       0.05000000       0.00000000 </v>
   <v>      -0.20000000       0.05000000       0.00000000 </v>
   <v>      -0.17500000       0.05000000       0.00000000 </v>
   <v>      -0.15000000       0.05000000       0.00000000 </v>
   <v>      -0.12500000       0.05000000       0.00000000 </v>
   <v>      -0.10000000       0.05000000       0.00000000 </v>
   <v>      -0.07500000       0.05000000       0.00000000 </v>
   <v>      -0.05000000       0.05000000       0.00000000 </v>
   <v>       0.07500000       0.07500000       0.00000000 </v>
   <v>       0.10000000       0.07500000       0.00000000 </v>
   <v>       0.12500000       0.07500000       0.00000000 </v>
   <v>       0.15000000       0.07500000       0.00000000 </v>
   <v>       0.17500000       0.07500000       0.00000000 </v>
   <v>       0.20000000       0.07500000       0.00000000 </v>
   <v>       0.22500000       0.07500000       0.00000000 </v>
   <v>       0.25000000       0.07500000       0.00000000 </v>
   <v>       0.27500000       0.07500000       0.00000000 </v>
   <v>       0.30000000       0.07500000       0.00000000 </v>
   <v>       0.32500000       0.07500000       0.00000000 </v>
   <v>       0.35000000       0.07500000       0.00000000 </v>
   <v>       0.37500000       0.07500000       0.00000000 </v>
   <v>       0.40000000       0.07500000       0.00000000 </v>
   <v>       0.42500000       0.07500000       0.00000000 </v>
   <v>       0.45000000       0.07500000       0.00000000 </v>
   <v>       0.47500000       0.07500000       0.00000000 </v>
   <v>       0.50000000       0.07500000       0.00000000 </v>
   <v>      -0.47500000       0.07500000       0.00000000 </v>
   <v>      -0.45000000       0.07500000       0.00000000 </v>
   <v>      -0.42500000       0.07500000       0.00000000 </v>
   <v>      -0.40000000       0.07500000       0.00000000 </v>
   <v>      -0.37500000       0.07500000       0.00000000 </v>
   <v>      -0.35000000       0.07500000       0.00000000 </v>
   <v>      -0.32500000       0.07500000       0.00000000 </v>
   <v>      -0.30000000       0.07500000       0.00000000 </v>
   <v>      -0.27500000       0.07500000       0.00000000 </v>
   <v>      -0.25000000       0.07500000       0.00000000 </v>
   <v>      -0.22500000       0.07500000       0.00000000 </v>
   <v>      -0.20000000       0.07500000       0.00000000 </v>
   <v>      -0.17500000       0.07500000       0.00000000 </v>
   <v>      -0.15000000       0.07500000       0.00000000 </v>
   <v>      -0.12500000       0.07500000       0.00000000 </v>
   <v>      -0.10000000       0.07500000       0.00000000 </v>
   <v>      -0.07500000       0.07500000       0.00000000 </v>
   <v>       0.10000000       0.10000000       0.00000000 </v>
   <v>       0.12500000       0.10000000       0.00000000 </v>
   <v>       0.15000000       0.10000000       0.00000000 </v>
   <v>       0.17500000       0.10000000       0.00000000 </v>
   <v>       0.20000000       0.10000000       0.00000000 </v>
   <v>       0.22500000       0.10000000       0.00000000 </v>
   <v>       0.25000000       0.10000000       0.00000000 </v>
   <v>       0.27500000       0.10000000       0.00000000 </v>
   <v>       0.30000000       0.10000000       0.00000000 </v>
   <v>       0.32500000       0.10000000       0.00000000 </v>
   <v>       0.35000000       0.10000000       0.00000000 </v>
   <v>       0.37500000       0.10000000       0.00000000 </v>
   <v>       0.40000000       0.10000000       0.00000000 </v>
   <v>       0.42500000       0.10000000       0.00000000 </v>
   <v>       0.45000000       0.10000000       0.00000000 </v>
   <v>       0.47500000       0.10000000       0.00000000 </v>
   <v>       0.50000000       0.10000000       0.00000000 </v>
   <v>      -0.47500000       0.10000000       0.00000000 </v>
   <v>      -0.45000000       0.10000000       0.00000000 </v>
   <v>      -0.42500000       0.10000000       0.00000000 </v>
   <v>      -0.40000000       0.10000000       0.00000000 </v>
   <v>      -0.37500000       0.10000000       0.00000000 </v>
   <v>      -0.35000000       0.10000000       0.00000000 </v>
   <v>      -0.32500000       0.10000000       0.00000000 </v>
   <v>      -0.30000000       0.10000000       0.00000000 </v>
   <v>      -0.27500000       0.10000000       0.00000000 </v>
   <v>      -0.25000000       0.10000000       0.00000000 </v>
   <v>      -0.22500000       0.10000000       0.00000000 </v>
   <v>      -0.20000000       0.10000000       0.00000000 </v>
   <v>      -0.17500000       0.10000000       0.00000000 </v>
   <v>      -0.15000000       0.10000000       0.00000000 </v>
   <v>      -0.12500000       0.10000000       0.00000000 </v>
   <v>      -0.10000000       0.10000000       0.00000000 </v>
   <v>       0.12500000       0.12500000       0.00000000 </v>
   <v>       0.15000000       0.12500000       0.00000000 </v>
   <v>       0.17500000       0.12500000       0.00000000 </v>
   <v>       0.20000000       0.12500000       0.00000000 </v>
   <v>       0.22500000       0.12500000       0.00000000 </v>
   <v>       0.25000000       0.12500000       0.00000000 </v>
   <v>       0.27500000       0.12500000       0.00000000 </v>
   <v>       0.30000000       0.12500000       0.00000000 </v>
   <v>       0.32500000       0.12500000       0.00000000 </v>
   <v>       0.35000000       0.12500000       0.00000000 </v>
   <v>       0.37500000       0.12500000       0.00000000 </v>
   <v>       0.40000000       0.12500000       0.00000000 </v>
   <v>       0.42500000       0.12500000       0.00000000 </v>
   <v>       0.45000000       0.12500000       0.00000000 </v>
   <v>       0.47500000       0.12500000       0.00000000 </v>
   <v>       0.50000000       0.12500000       0.00000000 </v>
   <v>      -0.47500000       0.12500000       0.00000000 </v>
   <v>      -0.45000000       0.12500000       0.00000000 </v>
   <v>      -0.42500000       0.12500000       0.00000000 </v>
   <v>      -0.40000000       0.12500000       0.00000000 </v>
   <v>      -0.37500000       0.12500000       0.00000000 </v>
   <v>      -0.35000000       0.12500000       0.00000000 </v>
   <v>      -0.32500000       0.12500000       0.00000000 </v>
   <v>      -0.30000000       0.12500000       0.00000000 </v>
   <v>      -0.27500000       0.12500000       0.00000000 </v>
   <v>      -0.25000000       0.12500000       0.00000000 </v>
   <v>      -0.22500000       0.12500000       0.00000000 </v>
   <v>      -0.20000000       0.12500000       0.00000000 </v>
   <v>      -0.17500000       0.12500000       0.00000000 </v>
   <v>      -0.15000000       0.12500000       0.00000000 </v>
   <v>      -0.12500000       0.12500000       0.00000000 </v>
   <v>       0.15000000       0.15000000       0.00000000 </v>
   <v>       0.17500000       0.15000000       0.00000000 </v>
   <v>       0.20000000       0.15000000       0.00000000 </v>
   <v>       0.22500000       0.15000000       0.00000000 </v>
   <v>       0.25000000       0.15000000       0.00000000 </v>
   <v>       0.27500000       0.15000000       0.00000000 </v>
   <v>       0.30000000       0.15000000       0.00000000 </v>
   <v>       0.32500000       0.15000000       0.00000000 </v>
   <v>       0.35000000       0.15000000       0.00000000 </v>
   <v>       0.37500000       0.15000000       0.00000000 </v>
   <v>       0.40000000       0.15000000       0.00000000 </v>
   <v>       0.42500000       0.15000000       0.00000000 </v>
   <v>       0.45000000       0.15000000       0.00000000 </v>
   <v>       0.47500000       0.15000000       0.00000000 </v>
   <v>       0.50000000       0.15000000       0.00000000 </v>
   <v>      -0.47500000       0.15000000       0.00000000 </v>
   <v>      -0.45000000       0.15000000       0.00000000 </v>
   <v>      -0.42500000       0.15000000       0.00000000 </v>
   <v>      -0.40000000       0.15000000       0.00000000 </v>
   <v>      -0.37500000       0.15000000       0.00000000 </v>
   <v>      -0.35000000       0.15000000       0.00000000 </v>
   <v>      -0.32500000       0.15000000       0.00000000 </v>
   <v>      -0.30000000       0.15000000       0.00000000 </v>
   <v>      -0.27500000       0.15000000       0.00000000 </v>
   <v>      -0.25000000       0.15000000       0.00000000 </v>
   <v>      -0.22500000       0.15000000       0.00000000 </v>
   <v>      -0.20000000       0.15000000       0.00000000 </v>
   <v>      -0.17500000       0.15000000       0.00000000 </v>
   <v>      -0.15000000       0.15000000       0.00000000 </v>
   <v>       0.17500000       0.17500000       0.00000000 </v>
   <v>       0.20000000       0.17500000       0.00000000 </v>
   <v>       0.22500000       0.17500000       0.00000000 </v>
   <v>       0.25000000       0.17500000       0.00000000 </v>
   <v>       0.27500000       0.17500000       0.00000000 </v>
   <v>       0.30000000       0.17500000       0.00000000 </v>
   <v>       0.32500000       0.17500000       0.00000000 </v>
   <v>       0.35000000       0.17500000       0.00000000 </v>
   <v>       0.37500000       0.17500000       0.00000000 </v>
   <v>       0.40000000       0.17500000       0.00000000 </v>
   <v>       0.42500000       0.17500000       0.00000000 </v>
   <v>       0.45000000       0.17500000       0.00000000 </v>
   <v>       0.47500000       0.17500000       0.00000000 </v>
   <v>       0.50000000       0.17500000       0.00000000 </v>
   <v>      -0.47500000       0.17500000       0.00000000 </v>
   <v>      -0.45000000       0.17500000       0.00000000 </v>
   <v>      -0.42500000       0.17500000       0.00000000 </v>
   <v>      -0.40000000       0.17500000       0.00000000 </v>
   <v>      -0.37500000       0.17500000       0.00000000 </v>
   <v>      -0.35000000       0.17500000       0.00000000 </v>
   <v>      -0.32500000       0.17500000       0.00000000 </v>
   <v>      -0.30000000       0.17500000       0.00000000 </v>
   <v>      -0.27500000       0.17500000       0.00000000 </v>
   <v>      -0.25000000       0.17500000       0.00000000 </v>
   <v>      -0.22500000       0.17500000       0.00000000 </v>
   <v>      -0.20000000       0.17500000       0.00000000 </v>
   <v>      -0.17500000       0.17500000       0.00000000 </v>
   <v>       0.20000000       0.20000000       0.00000000 </v>
   <v>       0.22500000       0.20000000       0.00000000 </v>
   <v>       0.25000000       0.20000000       0.00000000 </v>
   <v>       0.27500000       0.20000000       0.00000000 </v>
   <v>       0.30000000       0.20000000       0.00000000 </v>
   <v>       0.32500000       0.20000000       0.00000000 </v>
   <v>       0.35000000       0.20000000       0.00000000 </v>
   <v>       0.37500000       0.20000000       0.00000000 </v>
   <v>       0.40000000       0.20000000       0.00000000 </v>
   <v>       0.42500000       0.20000000       0.00000000 </v>
   <v>       0.45000000       0.20000000       0.00000000 </v>
   <v>       0.47500000       0.20000000       0.00000000 </v>
   <v>       0.50000000       0.20000000       0.00000000 </v>
   <v>      -0.47500000       0.20000000       0.00000000 </v>
   <v>      -0.45000000       0.20000000       0.00000000 </v>
   <v>      -0.42500000       0.20000000       0.00000000 </v>
   <v>      -0.40000000       0.20000000       0.00000000 </v>
   <v>      -0.37500000       0.20000000       0.00000000 </v>
   <v>      -0.35000000       0.20000000       0.00000000 </v>
   <v>      -0.32500000       0.20000000       0.00000000 </v>
   <v>      -0.30000000       0.20000000       0.00000000 </v>
   <v>      -0.27500000       0.20000000       0.00000000 </v>
   <v>      -0.25000000       0.20000000       0.00000000 </v>
   <v>      -0.22500000       0.20000000       0.00000000 </v>
   <v>      -0.20000000       0.20000000       0.00000000 </v>
   <v>       0.22500000       0.22500000       0.00000000 </v>
   <v>       0.25000000       0.22500000       0.00000000 </v>
   <v>       0.27500000       0.22500000       0.00000000 </v>
   <v>       0.30000000       0.22500000       0.00000000 </v>
   <v>       0.32500000       0.22500000       0.00000000 </v>
   <v>       0.35000000       0.22500000       0.00000000 </v>
   <v>       0.37500000       0.22500000       0.00000000 </v>
   <v>       0.40000000       0.22500000       0.00000000 </v>
   <v>       0.42500000       0.22500000       0.00000000 </v>
   <v>       0.45000000       0.22500000       0.00000000 </v>
   <v>       0.47500000       0.22500000       0.00000000 </v>
   <v>       0.50000000       0.22500000       0.00000000 </v>
   <v>      -0.47500000       0.22500000       0.00000000 </v>
   <v>      -0.45000000       0.22500000       0.00000000 </v>
   <v>      -0.42500000       0.22500000       0.00000000 </v>
   <v>      -0.40000000       0.22500000       0.00000000 </v>
   <v>      -0.37500000       0.22500000       0.00000000 </v>
   <v>      -0.35000000       0.22500000       0.00000000 </v>
   <v>      -0.32500000       0.22500000       0.00000000 </v>
   <v>      -0.30000000       0.22500000       0.00000000 </v>
   <v>      -0.27500000       0.22500000       0.00000000 </v>
   <v>      -0.25000000       0.22500000       0.00000000 </v>
   <v>      -0.22500000       0.22500000       0.00000000 </v>
   <v>       0.25000000       0.25000000       0.00000000 </v>
   <v>       0.27500000       0.25000000       0.00000000 </v>
   <v>       0.30000000       0.25000000       0.00000000 </v>
   <v>       0.32500000       0.25000000       0.00000000 </v>
   <v>       0.35000000       0.25000000       0.00000000 </v>
   <v>       0.37500000       0.25000000       0.00000000 </v>
   <v>       0.40000000       0.25000000       0.00000000 </v>
   <v>       0.42500000       0.25000000       0.00000000 </v>
   <v>       0.45000000       0.25000000       0.00000000 </v>
   <v>       0.47500000       0.25000000       0.00000000 </v>
   <v>       0.50000000       0.25000000       0.00000000 </v>
   <v>      -0.47500000       0.25000000       0.00000000 </v>
   <v>      -0.45000000       0.25000000       0.00000000 </v>
   <v>      -0.42500000       0.25000000       0.00000000 </v>
   <v>      -0.40000000       0.25000000       0.00000000 </v>
   <v>      -0.37500000       0.25000000       0.00000000 </v>
   <v>      -0.35000000       0.25000000       0.00000000 </v>
   <v>      -0.32500000       0.25000000       0.00000000 </v>
   <v>      -0.30000000       0.25000000       0.00000000 </v>
   <v>      -0.27500000       0.25000000       0.00000000 </v>
   <v>      -0.25000000       0.25000000       0.00000000 </v>
   <v>       0.27500000       0.27500000       0.00000000 </v>
   <v>       0.30000000       0.27500000       0.00000000 </v>
   <v>       0.32500000       0.27500000       0.00000000 </v>
   <v>       0.35000000       0.27500000       0.00000000 </v>
   <v>       0.37500000       0.27500000       0.00000000 </v>
   <v>       0.40000000       0.27500000       0.00000000 </v>
   <v>       0.42500000       0.27500000       0.00000000 </v>
   <v>       0.45000000       0.27500000       0.00000000 </v>
   <v>       0.47500000       0.27500000       0.00000000 </v>
   <v>       0.50000000       0.27500000       0.00000000 </v>
   <v>      -0.47500000       0.27500000       0.00000000 </v>
   <v>      -0.45000000       0.27500000       0.00000000 </v>
   <v>      -0.42500000       0.27500000       0.00000000 </v>
   <v>      -0.40000000       0.27500000       0.00000000 </v>
   <v>      -0.37500000       0.27500000       0.00000000 </v>
   <v>      -0.35000000       0.27500000       0.00000000 </v>
   <v>      -0.32500000       0.27500000       0.00000000 </v>
   <v>      -0.30000000       0.27500000       0.00000000 </v>
   <v>      -0.27500000       0.27500000       0.00000000 </v>
   <v>       0.30000000       0.30000000       0.00000000 </v>
   <v>       0.32500000       0.30000000       0.00000000 </v>
   <v>       0.35000000       0.30000000       0.00000000 </v>
   <v>       0.37500000       0.30000000       0.00000000 </v>
   <v>       0.40000000       0.30000000       0.00000000 </v>
   <v>       0.42500000       0.30000000       0.00000000 </v>
   <v>       0.45000000       0.30000000       0.00000000 </v>
   <v>       0.47500000       0.30000000       0.00000000 </v>
   <v>       0.50000000       0.30000000       0.00000000 </v>
   <v>      -0.47500000       0.30000000       0.00000000 </v>
   <v>      -0.45000000       0.30000000       0.00000000 </v>
   <v>      -0.42500000       0.30000000       0.00000000 </v>
   <v>      -0.40000000       0.30000000       0.00000000 </v>
   <v>      -0.37500000       0.30000000       0.00000000 </v>
   <v>      -0.35000000       0.30000000       0.00000000 </v>
   <v>      -0.32500000       0.30000000       0.00000000 </v>
   <v>      -0.30000000       0.30000000       0.00000000 </v>
   <v>       0.32500000       0.32500000       0.00000000 </v>
   <v>       0.35000000       0.32500000       0.00000000 </v>
   <v>       0.37500000       0.32500000       0.00000000 </v>
   <v>       0.40000000       0.32500000       0.00000000 </v>
   <v>       0.42500000       0.32500000       0.00000000 </v>
   <v>       0.45000000       0.32500000       0.00000000 </v>
   <v>       0.47500000       0.32500000       0.00000000 </v>
   <v>       0.50000000       0.32500000       0.00000000 </v>
   <v>      -0.47500000       0.32500000       0.00000000 </v>
   <v>      -0.45000000       0.32500000       0.00000000 </v>
   <v>      -0.42500000       0.32500000       0.00000000 </v>
   <v>      -0.40000000       0.32500000       0.00000000 </v>
   <v>      -0.37500000       0.32500000       0.00000000 </v>
   <v>      -0.35000000       0.32500000       0.00000000 </v>
   <v>      -0.32500000       0.32500000       0.00000000 </v>
   <v>       0.35000000       0.35000000       0.00000000 </v>
   <v>       0.37500000       0.35000000       0.00000000 </v>
   <v>       0.40000000       0.35000000       0.00000000 </v>
   <v>       0.42500000       0.35000000       0.00000000 </v>
   <v>       0.45000000       0.35000000       0.00000000 </v>
   <v>       0.47500000       0.35000000       0.00000000 </v>
   <v>       0.50000000       0.35000000       0.00000000 </v>
   <v>      -0.47500000       0.35000000       0.00000000 </v>
   <v>      -0.45000000       0.35000000       0.00000000 </v>
   <v>      -0.42500000       0.35000000       0.00000000 </v>
   <v>      -0.40000000       0.35000000       0.00000000 </v>
   <v>      -0.37500000       0.35000000       0.00000000 </v>
   <v>      -0.35000000       0.35000000       0.00000000 </v>
   <v>       0.37500000       0.37500000       0.00000000 </v>
   <v>       0.40000000       0.37500000       0.00000000 </v>
   <v>       0.42500000       0.37500000       0.00000000 </v>
   <v>       0.45000000       0.37500000       0.00000000 </v>
   <v>       0.47500000       0.37500000       0.00000000 </v>
   <v>       0.50000000       0.37500000       0.00000000 </v>
   <v>      -0.47500000       0.37500000       0.00000000 </v>
   <v>      -0.45000000       0.37500000       0.00000000 </v>
   <v>      -0.42500000       0.37500000       0.00000000 </v>
   <v>      -0.40000000       0.37500000       0.00000000 </v>
   <v>      -0.37500000       0.37500000       0.00000000 </v>
   <v>       0.40000000       0.40000000       0.00000000 </v>
   <v>       0.42500000       0.40000000       0.00000000 </v>
   <v>       0.45000000       0.40000000       0.00000000 </v>
   <v>       0.47500000       0.40000000       0.00000000 </v>
   <v>       0.50000000       0.40000000       0.00000000 </v>
   <v>      -0.47500000       0.40000000       0.00000000 </v>
   <v>      -0.45000000       0.40000000       0.00000000 </v>
   <v>      -0.42500000       0.40000000       0.00000000 </v>
   <v>      -0.40000000       0.40000000       0.00000000 </v>
   <v>       0.42500000       0.42500000       0.00000000 </v>
   <v>       0.45000000       0.42500000       0.00000000 </v>
   <v>       0.47500000       0.42500000       0.00000000 </v>
   <v>       0.50000000       0.42500000       0.00000000 </v>
   <v>      -0.47500000       0.42500000       0.00000000 </v>
   <v>      -0.45000000       0.42500000       0.00000000 </v>
   <v>      -0.42500000       0.42500000       0.00000000 </v>
   <v>       0.45000000       0.45000000       0.00000000 </v>
   <v>       0.47500000       0.45000000       0.00000000 </v>
   <v>       0.50000000       0.45000000       0.00000000 </v>
   <v>      -0.47500000       0.45000000       0.00000000 </v>
   <v>      -0.45000000       0.45000000       0.00000000 </v>
   <v>       0.47500000       0.47500000       0.00000000 </v>
   <v>       0.50000000       0.47500000       0.00000000 </v>
   <v>      -0.47500000       0.47500000       0.00000000 </v>
   <v>       0.50000000       0.50000000       0.00000000 </v>
  </varray>
  <varray name="weights" >
   <v>       0.00062500 </v>
   <v>       0.00250000 </v>
   <v>       0.00250000 </v>
   <v>       0.00250000 </v>
   <v>       0.00250000 </v>
   <v>       0.00250000 </v>
   <v>       0.00250000 </v>
   <v>       0.00250000 </v>
   <v>       0.00250000 </v>
   <v>       0.00250000 </v>
   <v>       0.00250000 </v>
   <v>       0.00250000 </v>
   <v>       0.00250000 </v>
   <v>       0.00250000 </v>
   <v>       0.00250000 </v>
   <v>       0.00250000 </v>
   <v>       0.00250000 </v>
   <v>       0.00250000 </v>
   <v>       0.00250000 </v>
   <v>       0.00250000 </v>
   <v>       0.00125000 </v>
   <v>       0.00125000 </v>
   <v>       0.00250000 </v>
   <v>       0.00250000 </v>
   <v>       0.00250000 </v>
   <v>       0.00250000 </v>
   <v>       0.00250000 </v>
   <v>       0.00250000 </v>
   <v>       0.00250000 </v>
   <v>       0.00250000 </v>
   <v>       0.00250000 </v>
   <v>       0.00250000 </v>
   <v>       0.00250000 </v>
   <v>       0.00250000 </v>
   <v>       0.00250000 </v>
   <v>       0.00250000 </v>
   <v>       0.00250000 </v>
   <v>       0.00250000 </v>
   <v>       0.00250000 </v>
   <v>       0.00250000 </v>
   <v>       0.00250000 </v>
   <v>       0.00250000 </v>
   <v>       0.00250000 </v>
   <v>       0.00250000 </v>
   <v>       0.00250000 </v>
   <v>       0.00250000 </v>
   <v>       0.00250000 </v>
   <v>       0.00250000 </v>
   <v>       0.00250000 </v>
   <v>       0.00250000 </v>
   <v>       0.00250000 </v>
   <v>       0.00250000 </v>
   <v>       0.00250000 </v>
   <v>       0.00250000 </v>
   <v>       0.00250000 </v>
   <v>       0.00250000 </v>
   <v>       0.00250000 </v>
   <v>       0.00250000 </v>
   <v>       0.00250000 </v>
   <v>       0.00125000 </v>
   <v>       0.00125000 </v>
   <v>       0.00250000 </v>
   <v>       0.00250000 </v>
   <v>       0.00250000 </v>
   <v>       0.00250000 </v>
   <v>       0.00250000 </v>
   <v>       0.00250000 </v>
   <v>       0.00250000 </v>
   <v>       0.00250000 </v>
   <v>       0.00250000 </v>
   <v>       0.00250000 </v>
   <v>       0.00250000 </v>
   <v>       0.00250000 </v>
   <v>       0.00250000 </v>
   <v>       0.00250000 </v>
   <v>       0.00250000 </v>
   <v>       0.00250000 </v>
   <v>       0.00250000 </v>
   <v>       0.00250000 </v>
   <v>       0.00250000 </v>
   <v>       0.00250000 </v>
   <v>       0.00250000 </v>
   <v>       0.00250000 </v>
   <v>       0.00250000 </v>
   <v>       0.00250000 </v>
   <v>       0.00250000 </v>
   <v>       0.00250000 </v>
   <v>       0.00250000 </v>
   <v>       0.00250000 </v>
   <v>       0.00250000 </v>
   <v>       0.00250000 </v>
   <v>       0.00250000 </v>
   <v>       0.00250000 </v>
   <v>       0.00250000 </v>
   <v>       0.00250000 </v>
   <v>       0.00250000 </v>
   <v>       0.00125000 </v>
   <v>       0.00125000 </v>
   <v>       0.00250000 </v>
   <v>       0.00250000 </v>
   <v>       0.00250000 </v>
   <v>       0.00250000 </v>
   <v>       0.00250000 </v>
   <v>       0.00250000 </v>
   <v>       0.00250000 </v>
   <v>       0.00250000 </v>
   <v>       0.00250000 </v>
   <v>       0.00250000 </v>
   <v>       0.00250000 </v>
   <v>       0.00250000 </v>
   <v>       0.00250000 </v>
   <v>       0.00250000 </v>
   <v>       0.00250000 </v>
   <v>       0.00250000 </v>
   <v>       0.00250000 </v>
   <v>       0.00250000 </v>
   <v>       0.00250000 </v>
   <v>       0.00250000 </v>
   <v>       0.00250000 </v>
   <v>       0.00250000 </v>
   <v>       0.00250000 </v>
   <v>       0.00250000 </v>
   <v>       0.00250000 </v>
   <v>       0.00250000 </v>
   <v>       0.00250000 </v>
   <v>       0.00250000 </v>
   <v>       0.00250000 </v>
   <v>       0.00250000 </v>
   <v>       0.00250000 </v>
   <v>       0.00250000 </v>
   <v>       0.00250000 </v>
   <v>       0.00125000 </v>
   <v>       0.00125000 </v>
   <v>       0.00250000 </v>
   <v>       0.00250000 </v>
   <v>       0.00250000 </v>
   <v>       0.00250000 </v>
   <v>       0.00250000 </v>
   <v>       0.00250000 </v>
   <v>       0.00250000 </v>
   <v>       0.00250000 </v>
   <v>       0.00250000 </v>
   <v>       0.00250000 </v>
   <v>       0.00250000 </v>
   <v>       0.00250000 </v>
   <v>       0.00250000 </v>
   <v>       0.00250000 </v>
   <v>       0.00250000 </v>
   <v>       0.00250000 </v>
   <v>       0.00250000 </v>
   <v>       0.00250000 </v>
   <v>       0.00250000 </v>
   <v>       0.00250000 </v>
   <v>       0.00250000 </v>
   <v>       0.00250000 </v>
   <v>       0.00250000 </v>
   <v>       0.00250000 </v>
   <v>       0.00250000 </v>
   <v>       0.00250000 </v>
   <v>       0.00250000 </v>
   <v>       0.00250000 </v>
   <v>       0.00250000 </v>
   <v>       0.00250000 </v>
   <v>       0.00250000 </v>
   <v>       0.00125000 </v>
   <v>       0.00125000 </v>
   <v>       0.00250000 </v>
   <v>       0.00250000 </v>
   <v>       0.00250000 </v>
   <v>       0.00250000 </v>
   <v>       0.00250000 </v>
   <v>       0.00250000 </v>
   <v>       0.00250000 </v>
   <v>       0.00250000 </v>
   <v>       0.00250000 </v>
   <v>       0.00250000 </v>
   <v>       0.00250000 </v>
   <v>       0.00250000 </v>
   <v>       0.00250000 </v>
   <v>       0.00250000 </v>
   <v>       0.00250000 </v>
   <v>       0.00250000 </v>
   <v>       0.00250000 </v>
   <v>       0.00250000 </v>
   <v>       0.00250000 </v>
   <v>       0.00250000 </v>
   <v>       0.00250000 </v>
   <v>       0.00250000 </v>
   <v>       0.00250000 </v>
   <v>       0.00250000 </v>
   <v>       0.00250000 </v>
   <v>       0.00250000 </v>
   <v>       0.00250000 </v>
   <v>       0.00250000 </v>
   <v>       0.00250000 </v>
   <v>       0.00125000 </v>
   <v>       0.00125000 </v>
   <v>       0.00250000 </v>
   <v>       0.00250000 </v>
   <v>       0.00250000 </v>
   <v>       0.00250000 </v>
   <v>       0.00250000 </v>
   <v>       0.00250000 </v>
   <v>       0.00250000 </v>
   <v>       0.00250000 </v>
   <v>       0.00250000 </v>
   <v>       0.00250000 </v>
   <v>       0.00250000 </v>
   <v>       0.00250000 </v>
   <v>       0.00250000 </v>
   <v>       0.00250000 </v>
   <v>       0.00250000 </v>
   <v>       0.00250000 </v>
   <v>       0.00250000 </v>
   <v>       0.00250000 </v>
   <v>       0.00250000 </v>
   <v>       0.00250000 </v>
   <v>       0.00250000 </v>
   <v>       0.00250000 </v>
   <v>       0.00250000 </v>
   <v>       0.00250000 </v>
   <v>       0.00250000 </v>
   <v>       0.00250000 </v>
   <v>       0.00250000 </v>
   <v>       0.00125000 </v>
   <v>       0.00125000 </v>
   <v>       0.00250000 </v>
   <v>       0.00250000 </v>
   <v>       0.00250000 </v>
   <v>       0.00250000 </v>
   <v>       0.00250000 </v>
   <v>       0.00250000 </v>
   <v>       0.00250000 </v>
   <v>       0.00250000 </v>
   <v>       0.00250000 </v>
   <v>       0.00250000 </v>
   <v>       0.00250000 </v>
   <v>       0.00250000 </v>
   <v>       0.00250000 </v>
   <v>       0.00250000 </v>
   <v>       0.00250000 </v>
   <v>       0.00250000 </v>
   <v>       0.00250000 </v>
   <v>       0.00250000 </v>
   <v>       0.00250000 </v>
   <v>       0.00250000 </v>
   <v>       0.00250000 </v>
   <v>       0.00250000 </v>
   <v>       0.00250000 </v>
   <v>       0.00250000 </v>
   <v>       0.00250000 </v>
   <v>       0.00125000 </v>
   <v>       0.00125000 </v>
   <v>       0.00250000 </v>
   <v>       0.00250000 </v>
   <v>       0.00250000 </v>
   <v>       0.00250000 </v>
   <v>       0.00250000 </v>
   <v>       0.00250000 </v>
   <v>       0.00250000 </v>
   <v>       0.00250000 </v>
   <v>       0.00250000 </v>
   <v>       0.00250000 </v>
   <v>       0.00250000 </v>
   <v>       0.00250000 </v>
   <v>       0.00250000 </v>
   <v>       0.00250000 </v>
   <v>       0.00250000 </v>
   <v>       0.00250000 </v>
   <v>       0.00250000 </v>
   <v>       0.00250000 </v>
   <v>       0.00250000 </v>
   <v>       0.00250000 </v>
   <v>       0.00250000 </v>
   <v>       0.00250000 </v>
   <v>       0.00250000 </v>
   <v>       0.00125000 </v>
   <v>       0.00125000 </v>
   <v>       0.00250000 </v>
   <v>       0.00250000 </v>
   <v>       0.00250000 </v>
   <v>       0.00250000 </v>
   <v>       0.00250000 </v>
   <v>       0.00250000 </v>
   <v>       0.00250000 </v>
   <v>       0.00250000 </v>
   <v>       0.00250000 </v>
   <v>       0.00250000 </v>
   <v>       0.00250000 </v>
   <v>       0.00250000 </v>
   <v>       0.00250000 </v>
   <v>       0.00250000 </v>
   <v>       0.00250000 </v>
   <v>       0.00250000 </v>
   <v>       0.00250000 </v>
   <v>       0.00250000 </v>
   <v>       0.00250000 </v>
   <v>       0.00250000 </v>
   <v>       0.00250000 </v>
   <v>       0.00125000 </v>
   <v>       0.00125000 </v>
   <v>       0.00250000 </v>
   <v>       0.00250000 </v>
   <v>       0.00250000 </v>
   <v>       0.00250000 </v>
   <v>       0.00250000 </v>
   <v>       0.00250000 </v>
   <v>       0.00250000 </v>
   <v>       0.00250000 </v>
   <v>       0.00250000 </v>
   <v>       0.00250000 </v>
   <v>       0.00250000 </v>
   <v>       0.00250000 </v>
   <v>       0.00250000 </v>
   <v>       0.00250000 </v>
   <v>       0.00250000 </v>
   <v>       0.00250000 </v>
   <v>       0.00250000 </v>
   <v>       0.00250000 </v>
   <v>       0.00250000 </v>
   <v>       0.00125000 </v>
   <v>       0.00125000 </v>
   <v>       0.00250000 </v>
   <v>       0.00250000 </v>
   <v>       0.00250000 </v>
   <v>       0.00250000 </v>
   <v>       0.00250000 </v>
   <v>       0.00250000 </v>
   <v>       0.00250000 </v>
   <v>       0.00250000 </v>
   <v>       0.00250000 </v>
   <v>       0.00250000 </v>
   <v>       0.00250000 </v>
   <v>       0.00250000 </v>
   <v>       0.00250000 </v>
   <v>       0.00250000 </v>
   <v>       0.00250000 </v>
   <v>       0.00250000 </v>
   <v>       0.00250000 </v>
   <v>       0.00125000 </v>
   <v>       0.00125000 </v>
   <v>       0.00250000 </v>
   <v>       0.00250000 </v>
   <v>       0.00250000 </v>
   <v>       0.00250000 </v>
   <v>       0.00250000 </v>
   <v>       0.00250000 </v>
   <v>       0.00250000 </v>
   <v>       0.00250000 </v>
   <v>       0.00250000 </v>
   <v>       0.00250000 </v>
   <v>       0.00250000 </v>
   <v>       0.00250000 </v>
   <v>       0.00250000 </v>
   <v>       0.00250000 </v>
   <v>       0.00250000 </v>
   <v>       0.00125000 </v>
   <v>       0.00125000 </v>
   <v>       0.00250000 </v>
   <v>       0.00250000 </v>
   <v>       0.00250000 </v>
   <v>       0.00250000 </v>
   <v>       0.00250000 </v>
   <v>       0.00250000 </v>
   <v>       0.00250000 </v>
   <v>       0.00250000 </v>
   <v>       0.00250000 </v>
   <v>       0.00250000 </v>
   <v>       0.00250000 </v>
   <v>       0.00250000 </v>
   <v>       0.00250000 </v>
   <v>       0.00125000 </v>
   <v>       0.00125000 </v>
   <v>       0.00250000 </v>
   <v>       0.00250000 </v>
   <v>       0.00250000 </v>
   <v>       0.00250000 </v>
   <v>       0.00250000 </v>
   <v>       0.00250000 </v>
   <v>       0.00250000 </v>
   <v>       0.00250000 </v>
   <v>       0.00250000 </v>
   <v>       0.00250000 </v>
   <v>       0.00250000 </v>
   <v>       0.00125000 </v>
   <v>       0.00125000 </v>
   <v>       0.00250000 </v>
   <v>       0.00250000 </v>
   <v>       0.00250000 </v>
   <v>       0.00250000 </v>
   <v>       0.00250000 </v>
   <v>       0.00250000 </v>
   <v>       0.00250000 </v>
   <v>       0.00250000 </v>
   <v>       0.00250000 </v>
   <v>       0.00125000 </v>
   <v>       0.00125000 </v>
   <v>       0.00250000 </v>
   <v>       0.00250000 </v>
   <v>       0.00250000 </v>
   <v>       0.00250000 </v>
   <v>       0.00250000 </v>
   <v>       0.00250000 </v>
   <v>       0.00250000 </v>
   <v>       0.00125000 </v>
   <v>       0.00125000 </v>
   <v>       0.00250000 </v>
   <v>       0.00250000 </v>
   <v>       0.00250000 </v>
   <v>       0.00250000 </v>
   <v>       0.00250000 </v>
   <v>       0.00125000 </v>
   <v>       0.00125000 </v>
   <v>       0.00250000 </v>
   <v>       0.00250000 </v>
   <v>       0.00250000 </v>
   <v>       0.00125000 </v>
   <v>       0.00125000 </v>
   <v>       0.00250000 </v>
   <v>       0.00125000 </v>
   <v>       0.00062500 </v>
  </varray>
 </kpoints>
 <parameters>
  <separator name="general" >
   <i type="string" name="SYSTEM">MoS2</i>
   <i type="logical" name="LCOMPAT"> F  </i>
  </separator>
  <separator name="electronic" >
   <i type="string" name="PREC">normal</i>
   <i name="ENMAX">    258.68900000</i>
   <i name="ENAUG">    345.27800000</i>
   <i name="EDIFF">      0.00010000</i>
   <i type="int" name="IALGO">    90</i>
   <i type="int" name="IWAVPR">    10</i>
   <i type="int" name="NBANDS">   108</i>
   <i name="NELECT">     18.00000000</i>
   <i type="int" name="TURBO">     0</i>
   <i type="int" name="IRESTART">     0</i>
   <i type="int" name="NREBOOT">     0</i>
   <i type="int" name="NMIN">     0</i>
   <i name="EREF">      0.00000000</i>
   <separator name="electronic smearing" >
    <i type="int" name="ISMEAR">     0</i>
    <i name="SIGMA">      0.01000000</i>
    <i name="KSPACING">      0.50000000</i>
    <i type="logical" name="KGAMMA"> T  </i>
   </separator>
   <separator name="electronic projectors" >
    <i type="logical" name="LREAL"> F  </i>
    <v name="ROPT">      0.00000000      0.00000000</v>
    <i type="int" name="LMAXPAW">  -100</i>
    <i type="int" name="LMAXMIX">     2</i>
    <i type="logical" name="NLSPLINE"> F  </i>
   </separator>
   <separator name="electronic startup" >
    <i type="int" name="ISTART">     1</i>
    <i type="int" name="ICHARG">     0</i>
    <i type="int" name="INIWAV">     1</i>
   </separator>
   <separator name="electronic spin" >
    <i type="int" name="ISPIN">     1</i>
    <i type="logical" name="LNONCOLLINEAR"> F  </i>
    <v name="MAGMOM">      1.00000000      1.00000000      1.00000000</v>
    <i name="NUPDOWN">     -1.00000000</i>
    <i type="logical" name="LSORBIT"> F  </i>
    <v name="SAXIS">      0.00000000      0.00000000      1.00000000</v>
    <i type="logical" name="LSPIRAL"> F  </i>
    <v name="QSPIRAL">      0.00000000      0.00000000      0.00000000</v>
    <i type="logical" name="LZEROZ"> F  </i>
   </separator>
   <separator name="electronic exchange-correlation" >
    <i type="logical" name="LASPH"> F  </i>
    <i type="logical" name="LMETAGGA"> F  </i>
   </separator>
   <separator name="electronic convergence" >
    <i type="int" name="NELM">    60</i>
    <i type="int" name="NELMDL">     0</i>
    <i type="int" name="NELMIN">     2</i>
    <i name="ENINI">    258.68900000</i>
    <separator name="electronic convergence detail" >
     <i type="logical" name="LDIAG"> T  </i>
     <i type="logical" name="LSUBROT"> F  </i>
     <i name="WEIMIN">      0.00000000</i>
     <i name="EBREAK">      0.00000023</i>
     <i name="DEPER">      0.30000000</i>
     <i type="int" name="NRMM">     4</i>
     <i name="TIME">      0.40000000</i>
    </separator>
   </separator>
   <separator name="electronic mixer" >
    <i name="AMIX">      0.40000000</i>
    <i name="BMIX">      1.00000000</i>
    <i name="AMIN">      0.10000000</i>
    <i name="AMIX_MAG">      1.60000000</i>
    <i name="BMIX_MAG">      1.00000000</i>
    <separator name="electronic mixer details" >
     <i type="int" name="IMIX">     4</i>
     <i type="int" name="MAXMIX">   -45</i>
     <i name="WC">    100.00000000</i>
     <i type="int" name="INIMIX">     1</i>
     <i type="int" name="MIXPRE">     1</i>
     <i type="int" name="MREMOVE">     5</i>
    </separator>
   </separator>
   <separator name="electronic dipolcorrection" >
    <i type="logical" name="LDIPOL"> F  </i>
    <i type="logical" name="LMONO"> F  </i>
    <i type="int" name="IDIPOL">     0</i>
    <i name="EPSILON">      1.00000000</i>
    <v name="DIPOL">   -100.00000000   -100.00000000   -100.00000000</v>
    <i name="EFIELD">      0.00000000</i>
   </separator>
  </separator>
  <separator name="grids" >
   <i type="int" name="NGX">    14</i>
   <i type="int" name="NGY">    14</i>
   <i type="int" name="NGZ">    50</i>
   <i type="int" name="NGXF">    28</i>
   <i type="int" name="NGYF">    28</i>
   <i type="int" name="NGZF">   100</i>
   <i type="logical" name="ADDGRID"> F  </i>
  </separator>
  <separator name="ionic" >
   <i type="int" name="NSW">     0</i>
   <i type="int" name="IBRION">    -1</i>
   <i type="int" name="ISIF">     2</i>
   <i name="PSTRESS">      0.00000000</i>
   <i name="EDIFFG">      0.00100000</i>
   <i type="int" name="NFREE">     0</i>
   <i name="POTIM">      0.50000000</i>
   <i name="SMASS">     -3.00000000</i>
   <i name="SCALEE">      1.00000000</i>
  </separator>
  <separator name="ionic md" >
   <i name="TEBEG">      0.00010000</i>
   <i name="TEEND">      0.00010000</i>
   <i type="int" name="NBLOCK">     1</i>
   <i type="int" name="KBLOCK">     1</i>
   <i type="int" name="NPACO">   256</i>
   <i name="APACO">     16.00000000</i>
  </separator>
  <separator name="symmetry" >
   <i type="int" name="ISYM">     2</i>
   <i name="SYMPREC">      0.00001000</i>
  </separator>
  <separator name="dos" >
   <i type="logical" name="LORBIT"> F  </i>
   <v name="RWIGS">     -1.00000000     -1.00000000</v>
   <i type="int" name="NEDOS">  2000</i>
   <i name="EMIN">     10.00000000</i>
   <i name="EMAX">    -10.00000000</i>
   <i name="EFERMI">      0.00000000</i>
  </separator>
  <separator name="writing" >
   <i type="int" name="NWRITE">     2</i>
   <i type="logical" name="LWAVE"> T  </i>
   <i type="logical" name="LCHARG"> T  </i>
   <i type="logical" name="LPARD"> F  </i>
   <i type="logical" name="LVTOT"> F  </i>
   <i type="logical" name="LVHAR"> F  </i>
   <i type="logical" name="LELF"> F  </i>
   <i type="logical" name="LOPTICS"> T  </i>
   <v name="STM">      0.00000000      0.00000000      0.00000000      0.00000000      0.00000000      0.00000000      0.00000000</v>
  </separator>
  <separator name="performance" >
   <i type="int" name="NPAR">    12</i>
   <i type="int" name="NSIM">     4</i>
   <i type="int" name="NBLK">    -1</i>
   <i type="logical" name="LPLANE"> T  </i>
   <i type="logical" name="LSCALAPACK"> T  </i>
   <i type="logical" name="LSCAAWARE"> T  </i>
   <i type="logical" name="LSCALU"> F  </i>
   <i type="logical" name="LASYNC"> F  </i>
   <i type="logical" name="LORBITALREAL"> F  </i>
  </separator>
  <separator name="miscellaneous" >
   <i type="int" name="IDIOT">     3</i>
   <i type="logical" name="LMUSIC"> F  </i>
   <v name="POMASS">     95.94000000     32.06600000</v>
   <v name="DARWINR">      0.00000000      0.00000000</v>
   <v name="DARWINV">      1.00000000      1.00000000</v>
   <i type="logical" name="LCORR"> T  </i>
  </separator>
  <i type="logical" name="GGA_COMPAT"> T  </i>
  <i type="logical" name="LBERRY"> F  </i>
  <i type="int" name="ICORELEVEL">     0</i>
  <i type="logical" name="LDAU"> F  </i>
  <i type="int" name="I_CONSTRAINED_M">     0</i>
  <separator name="electronic exchange-correlation" >
   <i type="string" name="GGA">PE</i>
   <i type="int" name="VOSKOWN">     0</i>
   <i type="logical" name="LHFCALC"> F  </i>
   <i type="string" name="PRECFOCK"></i>
   <i type="logical" name="LSYMGRAD"> F  </i>
   <i type="logical" name="LHFONE"> F  </i>
   <i type="logical" name="LRHFCALC"> F  </i>
   <i type="logical" name="LTHOMAS"> F  </i>
   <i type="logical" name="LMODELHF"> F  </i>
   <i name="ENCUT4O">     -1.00000000</i>
   <i type="int" name="EXXOEP">     0</i>
   <i type="int" name="FOURORBIT">     0</i>
   <i name="AEXX">      0.00000000</i>
   <i name="HFALPHA">      0.00000000</i>
   <i name="MCALPHA">      0.00000000</i>
   <i name="ALDAX">      1.00000000</i>
   <i name="AGGAX">      1.00000000</i>
   <i name="ALDAC">      1.00000000</i>
   <i name="AGGAC">      1.00000000</i>
   <i type="int" name="NKREDX">     1</i>
   <i type="int" name="NKREDY">     1</i>
   <i type="int" name="NKREDZ">     1</i>
   <i type="logical" name="SHIFTRED"> F  </i>
   <i type="logical" name="ODDONLY"> F  </i>
   <i type="logical" name="EVENONLY"> F  </i>
   <i type="int" name="LMAXFOCK">     0</i>
   <i type="int" name="NMAXFOCKAE">     0</i>
   <i type="logical" name="LFOCKAEDFT"> F  </i>
   <i name="HFSCREEN">      0.00000000</i>
   <i name="HFSCREENC">      0.00000000</i>
   <i type="int" name="NBANDSGWLOW">     0</i>
  </separator>
  <separator name="vdW DFT" >
   <i type="logical" name="LUSE_VDW"> F  </i>
   <i name="Zab_VDW">     -0.84910000</i>
   <i name="PARAM1">      0.12340000</i>
   <i name="PARAM2">      1.00000000</i>
   <i name="PARAM3">      0.00000000</i>
  </separator>
  <separator name="model GW" >
   <i type="int" name="MODEL_GW">     0</i>
   <i name="MODEL_EPS0">     21.87906573</i>
   <i name="MODEL_ALPHA">      1.00000000</i>
  </separator>
  <separator name="linear response parameters" >
   <i type="logical" name="LEPSILON"> F  </i>
   <i type="logical" name="LRPA"> F  </i>
   <i type="logical" name="LNABLA"> F  </i>
   <i type="logical" name="LVEL"> F  </i>
   <i type="int" name="KINTER">     0</i>
   <i name="CSHIFT">      0.10000000</i>
   <i name="OMEGAMAX">     -1.00000000</i>
   <i name="DEG_THRESHOLD">      0.00200000</i>
  </separator>
  <separator name="orbital magnetization" >
   <i type="logical" name="NUCIND"> F  </i>
   <v name="MAGPOS">      0.00000000      0.00000000      0.00000000</v>
   <i type="logical" name="LNICSALL"> T  </i>
   <i type="logical" name="ORBITALMAG"> F  </i>
   <i type="logical" name="LMAGBLOCH"> F  </i>
   <i type="logical" name="LCHIMAG"> F  </i>
   <i type="logical" name="LGAUGE"> T  </i>
   <i type="int" name="MAGATOM">     0</i>
   <v name="MAGDIPOL">      0.00000000      0.00000000      0.00000000</v>
   <v name="AVECCONST">      0.00000000      0.00000000      0.00000000</v>
  </separator>
  <separator name="response functions" >
   <i type="logical" name="LADDER"> F  </i>
   <i type="logical" name="LFXC"> F  </i>
   <i type="logical" name="LHARTREE"> T  </i>
   <i type="int" name="IBSE">     0</i>
   <i type="logical" name="LTCTE"> F  </i>
   <i type="logical" name="LTETE"> F  </i>
   <i type="logical" name="LTRIPLET"> F  </i>
   <i type="logical" name="LFXCEPS"> F  </i>
   <i type="logical" name="LFXHEG"> F  </i>
   <i type="logical" name="L2ORDER"> F  </i>
   <i type="logical" name="LUSEW"> F  </i>
   <i name="ENCUTGW">     -2.00000000</i>
   <i name="ENCUTGWSOFT">     -2.00000000</i>
   <i name="ENCUTLF">     -1.00000000</i>
   <i type="int" name="LMAXMP2">    -1</i>
   <i name="SCISSOR">      0.00000000</i>
   <i type="int" name="NOMEGA">     0</i>
   <i type="int" name="NOMEGAR">     0</i>
   <i type="int" name="NBANDSGW">    -1</i>
   <i type="int" name="NBANDSO">    -1</i>
   <i type="int" name="NBANDSV">    -1</i>
   <i type="int" name="NELM">     1</i>
   <i type="int" name="DIM">     3</i>
   <i type="int" name="ANTIRES">     0</i>
   <i name="OMEGAMAX">    -30.00000000</i>
   <i name="OMEGAMIN">    -30.00000000</i>
   <i name="OMEGATL">   -200.00000000</i>
   <i type="int" name="OMEGAGRID">     0</i>
   <i name="CSHIFT">      0.10000000</i>
   <i type="logical" name="SELFENERGY"> F  </i>
   <i type="logical" name="LSPECTRAL"> F  </i>
   <i type="logical" name="ODDONLYGW"> F  </i>
   <i type="logical" name="EVENONLYGW"> F  </i>
   <i type="int" name="NKREDLFX">     1</i>
   <i type="int" name="NKREDLFY">     1</i>
   <i type="int" name="NKREDLFZ">     1</i>
   <i type="int" name="MAXMEM">  1800</i>
   <i type="int" name="TELESCOPE">     0</i>
   <i type="int" name="TAUPAR">     1</i>
  </separator>
  <separator name="External order field" >
   <i name="OFIELD_KAPPA">      0.00000000</i>
   <v name="OFIELD_K">      0.00000000      0.00000000      0.00000000</v>
   <i name="OFIELD_Q6_NEAR">      0.00000000</i>
   <i name="OFIELD_Q6_FAR">      0.00000000</i>
   <i name="OFIELD_A">      0.00000000</i>
  </separator>
 </parameters>
 <atominfo>
  <atoms>       3 </atoms>
  <types>       2 </types>
  <array name="atoms" >
   <dimension dim="1">ion</dimension>
   <field type="string">element</field>
   <field type="int">atomtype</field>
   <set>
    <rc><c>Mo</c><c>   1</c></rc>
    <rc><c>S </c><c>   2</c></rc>
    <rc><c>S </c><c>   2</c></rc>
   </set>
  </array>
  <array name="atomtypes" >
   <dimension dim="1">type</dimension>
   <field type="int">atomspertype</field>
   <field type="string">element</field>
   <field>mass</field>
   <field>valence</field>
   <field type="string">pseudopotential</field>
   <set>
    <rc><c>   1</c><c>Mo</c><c>     95.94000000</c><c>      6.00000000</c><c>  PAW_PBE Mo 08Apr2002                  </c></rc>
    <rc><c>   2</c><c>S </c><c>     32.06600000</c><c>      6.00000000</c><c>  PAW_PBE S 06Sep2000                   </c></rc>
   </set>
  </array>
 </atominfo>
 <structure name="initialpos" >
  <crystal>
   <varray name="basis" >
    <v>       1.59500000      -2.76297065       0.00000000 </v>
    <v>       1.59500000       2.76297065       0.00000000 </v>
    <v>       0.00000000       0.00000000      12.41171580 </v>
   </varray>
   <i name="volume">    109.39532864 </i>
   <varray name="rec_basis" >
    <v>       0.31347962      -0.18096464       0.00000000 </v>
    <v>       0.31347962       0.18096464       0.00000000 </v>
    <v>       0.00000000       0.00000000       0.08056904 </v>
   </varray>
  </crystal>
  <varray name="positions" >
   <v>       0.66664498       0.33335502       0.75000054 </v>
   <v>       0.33335502       0.66664498       0.62899679 </v>
   <v>       0.33335502       0.66664498       0.87099696 </v>
  </varray>
 </structure>
 <calculation>
  <scstep>
   <time name="diag">  755.76  816.21</time>
   <time name="total">  756.06  816.52</time>
   <energy>
    <i name="alphaZ">     27.10289348 </i>
    <i name="ewald">    567.46917021 </i>
    <i name="hartreedc">  -1291.85271294 </i>
    <i name="XCdc">    -33.11397338 </i>
    <i name="pawpsdc"> 268061.07127988 </i>
    <i name="pawaedc">-267985.54607374 </i>
    <i name="eentropy">     -0.00009834 </i>
    <i name="bandstr">   -165.01080323 </i>
    <i name="atom">    771.08751311 </i>
    <i name="e_fr_energy">    -48.79280494 </i>
    <i name="e_wo_entrp">    -48.79270660 </i>
    <i name="e_0_energy">    -48.79275577 </i>
   </energy>
  </scstep>
  <scstep>
   <time name="diag">  572.71  572.89</time>
   <time name="total">  572.99  573.17</time>
   <energy>
    <i name="e_fr_energy">    -35.02930881 </i>
    <i name="e_wo_entrp">    -35.02930881 </i>
    <i name="e_0_energy">    -35.02930881 </i>
   </energy>
  </scstep>
  <scstep>
   <time name="diag">  572.45  572.60</time>
   <time name="total">  572.75  572.89</time>
   <energy>
    <i name="e_fr_energy">    -90.55104751 </i>
    <i name="e_wo_entrp">    -90.55097826 </i>
    <i name="e_0_energy">    -90.55101289 </i>
   </energy>
  </scstep>
  <scstep>
   <time name="diag">  572.32  572.46</time>
   <time name="total">  572.60  572.74</time>
   <energy>
    <i name="e_fr_energy">    -21.96628795 </i>
    <i name="e_wo_entrp">    -21.96628795 </i>
    <i name="e_0_energy">    -21.96628795 </i>
   </energy>
  </scstep>
  <scstep>
   <time name="diag">  573.11  573.24</time>
   <time name="total">  573.39  573.53</time>
   <energy>
    <i name="e_fr_energy">    -21.85187030 </i>
    <i name="e_wo_entrp">    -21.85187030 </i>
    <i name="e_0_energy">    -21.85187030 </i>
   </energy>
  </scstep>
  <scstep>
   <time name="diag">  572.67  572.81</time>
   <time name="total">  572.96  573.09</time>
   <energy>
    <i name="e_fr_energy">    -21.72205000 </i>
    <i name="e_wo_entrp">    -21.72205000 </i>
    <i name="e_0_energy">    -21.72205000 </i>
   </energy>
  </scstep>
  <scstep>
   <time name="diag">  572.47  572.69</time>
   <time name="total">  572.76  572.97</time>
   <energy>
    <i name="e_fr_energy">    -21.69213810 </i>
    <i name="e_wo_entrp">    -21.69213810 </i>
    <i name="e_0_energy">    -21.69213810 </i>
   </energy>
  </scstep>
  <scstep>
   <time name="diag">  572.38  572.52</time>
   <time name="total">  572.66  572.80</time>
   <energy>
    <i name="e_fr_energy">    -21.68954661 </i>
    <i name="e_wo_entrp">    -21.68954661 </i>
    <i name="e_0_energy">    -21.68954661 </i>
   </energy>
  </scstep>
  <scstep>
   <time name="diag">  572.53  573.15</time>
   <time name="total">  572.55  573.18</time>
   <energy>
    <i name="alphaZ">     27.10289348 </i>
    <i name="ewald">    567.46917021 </i>
    <i name="hartreedc">  -1324.32580307 </i>
    <i name="XCdc">    -34.90166455 </i>
    <i name="pawpsdc">   1861.77095315 </i>
    <i name="pawaedc">  -1786.13916670 </i>
    <i name="eentropy">     -0.00000000 </i>
    <i name="bandstr">   -103.75348269 </i>
    <i name="atom">    771.08751311 </i>
    <i name="e_fr_energy">    -21.68958705 </i>
    <i name="e_wo_entrp">    -21.68958705 </i>
    <i name="e_0_energy">    -21.68958705 </i>
   </energy>
  </scstep>
  <structure>
   <crystal>
    <varray name="basis" >
     <v>       1.59500000      -2.76297065       0.00000000 </v>
     <v>       1.59500000       2.76297065       0.00000000 </v>
     <v>       0.00000000       0.00000000      12.41171580 </v>
    </varray>
    <i name="volume">    109.39532864 </i>
    <varray name="rec_basis" >
     <v>       0.31347962      -0.18096464       0.00000000 </v>
     <v>       0.31347962       0.18096464       0.00000000 </v>
     <v>       0.00000000       0.00000000       0.08056904 </v>
    </varray>
   </crystal>
   <varray name="positions" >
    <v>       0.66664498       0.33335502       0.75000054 </v>
    <v>       0.33335502       0.66664498       0.62899679 </v>
    <v>       0.33335502       0.66664498       0.87099696 </v>
   </varray>
  </structure>
  <varray name="forces" >
   <v>       0.00000000      -0.00389207      -0.00155139 </v>
   <v>       0.00000000       0.00194603      -1.21643393 </v>
   <v>       0.00000000       0.00194604       1.21798532 </v>
  </varray>
  <varray name="stress" >
   <v>      11.77917486       0.00000000       0.00000000 </v>
   <v>       0.00000000      11.59209229      -0.00000251 </v>
   <v>       0.00000000      -0.00000216      52.58190710 </v>
  </varray>
  <energy>
   <i name="e_fr_energy">    -21.68958705 </i>
   <i name="e_wo_entrp">    -21.68958705 </i>
   <i name="e_0_energy">     -0.00000000 </i>
  </energy>
  <time name="totalsc"> 5427.01 5555.71</time>
  <eigenvalues>
   <array>
    <dimension dim="1">band</dimension>
    <dimension dim="2">kpoint</dimension>
    <dimension dim="3">spin</dimension>
    <field>eigene</field>
    <field>occ</field>
    <set>
     <set comment="spin 1">
      <set comment="kpoint 1">
       <r>  -14.9035    1.0000 </r>
       <r>  -13.4639    1.0000 </r>
       <r>   -6.3828    1.0000 </r>
       <r>   -3.6217    1.0000 </r>
       <r>   -3.6210    1.0000 </r>
       <r>   -2.4027    1.0000 </r>
       <r>   -2.3993    1.0000 </r>
       <r>   -2.1795    1.0000 </r>
       <r>   -0.4182    1.0000 </r>
       <r>    2.1605    0.0000 </r>
       <r>    2.1622    0.0000 </r>
       <r>    2.5426    0.0000 </r>
       <r>    2.5448    0.0000 </r>
       <r>    4.4286    0.0000 </r>
       <r>    5.6917    0.0000 </r>
       <r>    5.7939    0.0000 </r>
       <r>    7.7975    0.0000 </r>
       <r>    8.5439    0.0000 </r>
       <r>   10.3576    0.0000 </r>
       <r>   10.3592    0.0000 </r>
       <r>   11.5189    0.0000 </r>
       <r>   12.5579    0.0000 </r>
       <r>   12.6706    0.0000 </r>
       <r>   12.6745    0.0000 </r>
       <r>   14.1318    0.0000 </r>
       <r>   15.9440    0.0000 </r>
       <r>   16.1594    0.0000 </r>
       <r>   16.1610    0.0000 </r>
       <r>   16.2356    0.0000 </r>
       <r>   16.2361    0.0000 </r>
       <r>   18.2195    0.0000 </r>
       <r>   19.2599    0.0000 </r>
       <r>   20.2540    0.0000 </r>
       <r>   21.1834    0.0000 </r>
       <r>   22.2232    0.0000 </r>
       <r>   22.2253    0.0000 </r>
       <r>   23.9197    0.0000 </r>
       <r>   23.9234    0.0000 </r>
       <r>   23.9393    0.0000 </r>
       <r>   24.0852    0.0000 </r>
       <r>   24.0883    0.0000 </r>
       <r>   24.2265    0.0000 </r>
       <r>   24.6586    0.0000 </r>
       <r>   24.7203    0.0000 </r>
       <r>   24.7223    0.0000 </r>
       <r>   25.1451    0.0000 </r>
       <r>   25.1475    0.0000 </r>
       <r>   25.9616    0.0000 </r>
       <r>   26.0564    0.0000 </r>
       <r>   26.6299    0.0000 </r>
       <r>   26.6334    0.0000 </r>
       <r>   26.7491    0.0000 </r>
       <r>   27.3201    0.0000 </r>
       <r>   28.1504    0.0000 </r>
       <r>   28.1528    0.0000 </r>
       <r>   28.7243    0.0000 </r>
       <r>   28.7278    0.0000 </r>
       <r>   28.9610    0.0000 </r>
       <r>   29.2640    0.0000 </r>
       <r>   29.5959    0.0000 </r>
       <r>   30.7558    0.0000 </r>
       <r>   30.7586    0.0000 </r>
       <r>   31.1533    0.0000 </r>
       <r>   31.1556    0.0000 </r>
       <r>   32.1703    0.0000 </r>
       <r>   32.2060    0.0000 </r>
       <r>   33.3297    0.0000 </r>
       <r>   33.6502    0.0000 </r>
       <r>   33.6529    0.0000 </r>
       <r>   35.0283    0.0000 </r>
       <r>   35.0332    0.0000 </r>
       <r>   36.1143    0.0000 </r>
       <r>   36.8765    0.0000 </r>
       <r>   37.4598    0.0000 </r>
       <r>   37.4624    0.0000 </r>
       <r>   37.9881    0.0000 </r>
       <r>   37.9883    0.0000 </r>
       <r>   39.2456    0.0000 </r>
       <r>   39.2724    0.0000 </r>
       <r>   39.2737    0.0000 </r>
       <r>   39.7220    0.0000 </r>
       <r>   40.1943    0.0000 </r>
       <r>   40.1954    0.0000 </r>
       <r>   40.5467    0.0000 </r>
       <r>   40.6577    0.0000 </r>
       <r>   40.6595    0.0000 </r>
       <r>   41.1188    0.0000 </r>
       <r>   41.5004    0.0000 </r>
       <r>   41.5873    0.0000 </r>
       <r>   41.5885    0.0000 </r>
       <r>   42.0906    0.0000 </r>
       <r>   43.6866    0.0000 </r>
       <r>   43.6887    0.0000 </r>
       <r>   44.9226    0.0000 </r>
       <r>   44.9281    0.0000 </r>
       <r>   45.5705    0.0000 </r>
       <r>   45.7139    0.0000 </r>
       <r>   46.0384    0.0000 </r>
       <r>   46.3108    0.0000 </r>
       <r>   46.3164    0.0000 </r>
       <r>   46.3231    0.0000 </r>
       <r>   48.2532    0.0000 </r>
       <r>   48.2567    0.0000 </r>
       <r>   48.4362    0.0000 </r>
       <r>   48.4363    0.0000 </r>
       <r>   50.7075    0.0000 </r>
       <r>   51.3962    0.0000 </r>
       <r>   51.5133    0.0000 </r>
      </set>
      <set comment="kpoint 2">
       <r>  -14.8946    1.0000 </r>
       <r>  -13.4602    1.0000 </r>
       <r>   -6.3727    1.0000 </r>
       <r>   -3.6407    1.0000 </r>
       <r>   -3.6113    1.0000 </r>
       <r>   -2.5090    1.0000 </r>
       <r>   -2.4178    1.0000 </r>
       <r>   -2.0827    1.0000 </r>
       <r>   -0.4241    1.0000 </r>
       <r>    2.1448    0.0000 </r>
       <r>    2.1793    0.0000 </r>
       <r>    2.5164    0.0000 </r>
       <r>    2.5314    0.0000 </r>
       <r>    4.4455    0.0000 </r>
       <r>    5.7365    0.0000 </r>
       <r>    5.8055    0.0000 </r>
       <r>    7.8099    0.0000 </r>
       <r>    8.5891    0.0000 </r>
       <r>   10.3370    0.0000 </r>
       <r>   10.3913    0.0000 </r>
       <r>   11.5214    0.0000 </r>
       <r>   12.5664    0.0000 </r>
       <r>   12.5817    0.0000 </r>
       <r>   12.6686    0.0000 </r>
       <r>   14.1243    0.0000 </r>
       <r>   16.0466    0.0000 </r>
       <r>   16.1181    0.0000 </r>
       <r>   16.1538    0.0000 </r>
       <r>   16.1646    0.0000 </r>
       <r>   16.2503    0.0000 </r>
       <r>   18.2590    0.0000 </r>
       <r>   19.3453    0.0000 </r>
       <r>   20.2909    0.0000 </r>
       <r>   21.1398    0.0000 </r>
       <r>   22.1910    0.0000 </r>
       <r>   22.2520    0.0000 </r>
       <r>   23.2272    0.0000 </r>
       <r>   23.5692    0.0000 </r>
       <r>   23.7345    0.0000 </r>
       <r>   23.9497    0.0000 </r>
       <r>   23.9639    0.0000 </r>
       <r>   24.4875    0.0000 </r>
       <r>   24.7588    0.0000 </r>
       <r>   24.9331    0.0000 </r>
       <r>   25.1640    0.0000 </r>
       <r>   25.2120    0.0000 </r>
       <r>   25.2805    0.0000 </r>
       <r>   26.0262    0.0000 </r>
       <r>   26.3435    0.0000 </r>
       <r>   26.3456    0.0000 </r>
       <r>   26.4800    0.0000 </r>
       <r>   26.8659    0.0000 </r>
       <r>   27.3648    0.0000 </r>
       <r>   28.2570    0.0000 </r>
       <r>   28.3088    0.0000 </r>
       <r>   28.3263    0.0000 </r>
       <r>   28.6854    0.0000 </r>
       <r>   29.0927    0.0000 </r>
       <r>   29.5564    0.0000 </r>
       <r>   29.7250    0.0000 </r>
       <r>   30.6111    0.0000 </r>
       <r>   30.8172    0.0000 </r>
       <r>   31.0487    0.0000 </r>
       <r>   31.0549    0.0000 </r>
       <r>   32.2138    0.0000 </r>
       <r>   32.4443    0.0000 </r>
       <r>   33.1016    0.0000 </r>
       <r>   33.7588    0.0000 </r>
       <r>   34.0148    0.0000 </r>
       <r>   34.7322    0.0000 </r>
       <r>   35.0082    0.0000 </r>
       <r>   36.3679    0.0000 </r>
       <r>   36.7410    0.0000 </r>
       <r>   37.3688    0.0000 </r>
       <r>   37.5249    0.0000 </r>
       <r>   37.9464    0.0000 </r>
       <r>   37.9562    0.0000 </r>
       <r>   39.1152    0.0000 </r>
       <r>   39.1832    0.0000 </r>
       <r>   39.2672    0.0000 </r>
       <r>   39.7584    0.0000 </r>
       <r>   40.2040    0.0000 </r>
       <r>   40.2064    0.0000 </r>
       <r>   40.4543    0.0000 </r>
       <r>   40.5054    0.0000 </r>
       <r>   40.7421    0.0000 </r>
       <r>   41.1412    0.0000 </r>
       <r>   41.1665    0.0000 </r>
       <r>   41.7401    0.0000 </r>
       <r>   41.9483    0.0000 </r>
       <r>   42.1398    0.0000 </r>
       <r>   43.5594    0.0000 </r>
       <r>   43.6122    0.0000 </r>
       <r>   45.0007    0.0000 </r>
       <r>   45.0379    0.0000 </r>
       <r>   45.5826    0.0000 </r>
       <r>   45.6063    0.0000 </r>
       <r>   46.1425    0.0000 </r>
       <r>   46.1594    0.0000 </r>
       <r>   46.4536    0.0000 </r>
       <r>   46.7817    0.0000 </r>
       <r>   48.1816    0.0000 </r>
       <r>   48.1874    0.0000 </r>
       <r>   48.4964    0.0000 </r>
       <r>   48.5247    0.0000 </r>
       <r>   50.7723    0.0000 </r>
       <r>   51.3561    0.0000 </r>
       <r>   51.3890    0.0000 </r>
      </set>
      <set comment="kpoint 3">
       <r>  -14.8680    1.0000 </r>
       <r>  -13.4492    1.0000 </r>
       <r>   -6.3422    1.0000 </r>
       <r>   -3.6990    1.0000 </r>
       <r>   -3.5802    1.0000 </r>
       <r>   -2.6901    1.0000 </r>
       <r>   -2.4634    1.0000 </r>
       <r>   -1.9369    1.0000 </r>
       <r>   -0.4430    1.0000 </r>
       <r>    2.1029    0.0000 </r>
       <r>    2.2324    0.0000 </r>
       <r>    2.4374    0.0000 </r>
       <r>    2.4971    0.0000 </r>
       <r>    4.4938    0.0000 </r>
       <r>    5.8401    0.0000 </r>
       <r>    5.8668    0.0000 </r>
       <r>    7.8458    0.0000 </r>
       <r>    8.7224    0.0000 </r>
       <r>   10.2584    0.0000 </r>
       <r>   10.4898    0.0000 </r>
       <r>   11.5238    0.0000 </r>
       <r>   12.3520    0.0000 </r>
       <r>   12.5785    0.0000 </r>
       <r>   12.6794    0.0000 </r>
       <r>   14.1036    0.0000 </r>
       <r>   15.9091    0.0000 </r>
       <r>   16.0044    0.0000 </r>
       <r>   16.1479    0.0000 </r>
       <r>   16.3054    0.0000 </r>
       <r>   16.3940    0.0000 </r>
       <r>   18.3757    0.0000 </r>
       <r>   19.5516    0.0000 </r>
       <r>   20.4215    0.0000 </r>
       <r>   21.0116    0.0000 </r>
       <r>   22.0062    0.0000 </r>
       <r>   22.3150    0.0000 </r>
       <r>   22.5919    0.0000 </r>
       <r>   22.8168    0.0000 </r>
       <r>   23.4321    0.0000 </r>
       <r>   23.6128    0.0000 </r>
       <r>   23.7039    0.0000 </r>
       <r>   24.3062    0.0000 </r>
       <r>   24.9377    0.0000 </r>
       <r>   25.3006    0.0000 </r>
       <r>   25.3806    0.0000 </r>
       <r>   25.5818    0.0000 </r>
       <r>   25.8164    0.0000 </r>
       <r>   25.8760    0.0000 </r>
       <r>   26.1880    0.0000 </r>
       <r>   26.5321    0.0000 </r>
       <r>   26.9555    0.0000 </r>
       <r>   26.9948    0.0000 </r>
       <r>   27.4025    0.0000 </r>
       <r>   27.6426    0.0000 </r>
       <r>   28.5489    0.0000 </r>
       <r>   28.5863    0.0000 </r>
       <r>   28.7271    0.0000 </r>
       <r>   29.4915    0.0000 </r>
       <r>   29.5734    0.0000 </r>
       <r>   29.9022    0.0000 </r>
       <r>   30.6912    0.0000 </r>
       <r>   30.7848    0.0000 </r>
       <r>   30.8079    0.0000 </r>
       <r>   30.9875    0.0000 </r>
       <r>   32.3377    0.0000 </r>
       <r>   32.9381    0.0000 </r>
       <r>   32.9508    0.0000 </r>
       <r>   34.0322    0.0000 </r>
       <r>   34.1996    0.0000 </r>
       <r>   34.5133    0.0000 </r>
       <r>   34.9500    0.0000 </r>
       <r>   36.4840    0.0000 </r>
       <r>   36.7235    0.0000 </r>
       <r>   37.1177    0.0000 </r>
       <r>   37.5992    0.0000 </r>
       <r>   37.8596    0.0000 </r>
       <r>   37.8825    0.0000 </r>
       <r>   38.7334    0.0000 </r>
       <r>   39.0401    0.0000 </r>
       <r>   39.2084    0.0000 </r>
       <r>   39.8443    0.0000 </r>
       <r>   40.1643    0.0000 </r>
       <r>   40.2130    0.0000 </r>
       <r>   40.2151    0.0000 </r>
       <r>   40.3540    0.0000 </r>
       <r>   40.8486    0.0000 </r>
       <r>   40.8741    0.0000 </r>
       <r>   41.2166    0.0000 </r>
       <r>   42.1215    0.0000 </r>
       <r>   42.2635    0.0000 </r>
       <r>   42.3606    0.0000 </r>
       <r>   43.2646    0.0000 </r>
       <r>   43.5147    0.0000 </r>
       <r>   45.1542    0.0000 </r>
       <r>   45.3295    0.0000 </r>
       <r>   45.3418    0.0000 </r>
       <r>   45.6399    0.0000 </r>
       <r>   46.1354    0.0000 </r>
       <r>   46.3951    0.0000 </r>
       <r>   47.0228    0.0000 </r>
       <r>   47.3210    0.0000 </r>
       <r>   47.9959    0.0000 </r>
       <r>   48.0200    0.0000 </r>
       <r>   48.7039    0.0000 </r>
       <r>   48.7937    0.0000 </r>
       <r>   50.9166    0.0000 </r>
       <r>   51.2984    0.0000 </r>
       <r>   51.3072    0.0000 </r>
      </set>
      <set comment="kpoint 4">
       <r>  -14.8240    1.0000 </r>
       <r>  -13.4311    1.0000 </r>
       <r>   -6.2937    1.0000 </r>
       <r>   -3.7913    1.0000 </r>
       <r>   -3.5301    1.0000 </r>
       <r>   -2.8847    1.0000 </r>
       <r>   -2.5357    1.0000 </r>
       <r>   -1.8054    1.0000 </r>
       <r>   -0.4774    1.0000 </r>
       <r>    2.0474    0.0000 </r>
       <r>    2.3160    0.0000 </r>
       <r>    2.3221    0.0000 </r>
       <r>    2.4412    0.0000 </r>
       <r>    4.5682    0.0000 </r>
       <r>    5.8971    0.0000 </r>
       <r>    6.0733    0.0000 </r>
       <r>    7.9034    0.0000 </r>
       <r>    8.9301    0.0000 </r>
       <r>   10.1420    0.0000 </r>
       <r>   10.6414    0.0000 </r>
       <r>   11.4975    0.0000 </r>
       <r>   12.0838    0.0000 </r>
       <r>   12.5751    0.0000 </r>
       <r>   12.6930    0.0000 </r>
       <r>   14.0736    0.0000 </r>
       <r>   15.6037    0.0000 </r>
       <r>   15.8157    0.0000 </r>
       <r>   16.1211    0.0000 </r>
       <r>   16.3803    0.0000 </r>
       <r>   16.8458    0.0000 </r>
       <r>   18.5665    0.0000 </r>
       <r>   19.7743    0.0000 </r>
       <r>   20.6714    0.0000 </r>
       <r>   20.7723    0.0000 </r>
       <r>   21.4877    0.0000 </r>
       <r>   22.0492    0.0000 </r>
       <r>   22.3101    0.0000 </r>
       <r>   22.3376    0.0000 </r>
       <r>   23.2494    0.0000 </r>
       <r>   23.3047    0.0000 </r>
       <r>   23.4076    0.0000 </r>
       <r>   23.8531    0.0000 </r>
       <r>   24.6615    0.0000 </r>
       <r>   25.3922    0.0000 </r>
       <r>   25.4439    0.0000 </r>
       <r>   25.9333    0.0000 </r>
       <r>   26.1702    0.0000 </r>
       <r>   26.2830    0.0000 </r>
       <r>   26.3623    0.0000 </r>
       <r>   26.6576    0.0000 </r>
       <r>   26.8917    0.0000 </r>
       <r>   27.2220    0.0000 </r>
       <r>   27.7053    0.0000 </r>
       <r>   27.8998    0.0000 </r>
       <r>   28.4639    0.0000 </r>
       <r>   28.6585    0.0000 </r>
       <r>   29.2065    0.0000 </r>
       <r>   29.4929    0.0000 </r>
       <r>   29.6874    0.0000 </r>
       <r>   29.9708    0.0000 </r>
       <r>   30.4473    0.0000 </r>
       <r>   30.6154    0.0000 </r>
       <r>   31.2293    0.0000 </r>
       <r>   31.2576    0.0000 </r>
       <r>   32.4981    0.0000 </r>
       <r>   32.9575    0.0000 </r>
       <r>   33.2978    0.0000 </r>
       <r>   33.9138    0.0000 </r>
       <r>   34.3588    0.0000 </r>
       <r>   34.8383    0.0000 </r>
       <r>   34.8786    0.0000 </r>
       <r>   36.2793    0.0000 </r>
       <r>   36.7462    0.0000 </r>
       <r>   36.8530    0.0000 </r>
       <r>   37.6447    0.0000 </r>
       <r>   37.6861    0.0000 </r>
       <r>   37.6892    0.0000 </r>
       <r>   38.2465    0.0000 </r>
       <r>   39.0269    0.0000 </r>
       <r>   39.0630    0.0000 </r>
       <r>   39.7834    0.0000 </r>
       <r>   39.8993    0.0000 </r>
       <r>   40.2188    0.0000 </r>
       <r>   40.2224    0.0000 </r>
       <r>   40.3095    0.0000 </r>
       <r>   40.8150    0.0000 </r>
       <r>   40.9388    0.0000 </r>
       <r>   41.3366    0.0000 </r>
       <r>   42.3283    0.0000 </r>
       <r>   42.6388    0.0000 </r>
       <r>   42.7816    0.0000 </r>
       <r>   43.0231    0.0000 </r>
       <r>   43.4771    0.0000 </r>
       <r>   45.1226    0.0000 </r>
       <r>   45.2539    0.0000 </r>
       <r>   45.7347    0.0000 </r>
       <r>   45.8310    0.0000 </r>
       <r>   46.0777    0.0000 </r>
       <r>   46.6255    0.0000 </r>
       <r>   47.6831    0.0000 </r>
       <r>   47.7450    0.0000 </r>
       <r>   47.8090    0.0000 </r>
       <r>   47.9607    0.0000 </r>
       <r>   49.1106    0.0000 </r>
       <r>   49.1667    0.0000 </r>
       <r>   51.0406    0.0000 </r>
       <r>   51.2271    0.0000 </r>
       <r>   51.4132    0.0000 </r>
      </set>
      <set comment="kpoint 5">
       <r>  -14.7634    1.0000 </r>
       <r>  -13.4061    1.0000 </r>
       <r>   -6.2289    1.0000 </r>
       <r>   -3.9112    1.0000 </r>
       <r>   -3.4616    1.0000 </r>
       <r>   -3.0840    1.0000 </r>
       <r>   -2.6296    1.0000 </r>
       <r>   -1.7013    1.0000 </r>
       <r>   -0.5312    1.0000 </r>
       <r>    1.9950    0.0000 </r>
       <r>    2.1880    0.0000 </r>
       <r>    2.3680    0.0000 </r>
       <r>    2.4253    0.0000 </r>
       <r>    4.6640    0.0000 </r>
       <r>    5.9756    0.0000 </r>
       <r>    6.3421    0.0000 </r>
       <r>    7.9804    0.0000 </r>
       <r>    9.1889    0.0000 </r>
       <r>    9.9938    0.0000 </r>
       <r>   10.8409    0.0000 </r>
       <r>   11.3624    0.0000 </r>
       <r>   11.9102    0.0000 </r>
       <r>   12.5299    0.0000 </r>
       <r>   12.7213    0.0000 </r>
       <r>   14.0370    0.0000 </r>
       <r>   15.2675    0.0000 </r>
       <r>   15.5731    0.0000 </r>
       <r>   16.0979    0.0000 </r>
       <r>   16.4800    0.0000 </r>
       <r>   17.3821    0.0000 </r>
       <r>   18.8185    0.0000 </r>
       <r>   19.9506    0.0000 </r>
       <r>   20.2825    0.0000 </r>
       <r>   20.9960    0.0000 </r>
       <r>   21.0647    0.0000 </r>
       <r>   21.3287    0.0000 </r>
       <r>   22.1241    0.0000 </r>
       <r>   22.2155    0.0000 </r>
       <r>   23.0346    0.0000 </r>
       <r>   23.1131    0.0000 </r>
       <r>   23.3160    0.0000 </r>
       <r>   23.4579    0.0000 </r>
       <r>   23.9748    0.0000 </r>
       <r>   25.0601    0.0000 </r>
       <r>   25.9050    0.0000 </r>
       <r>   26.1017    0.0000 </r>
       <r>   26.2811    0.0000 </r>
       <r>   26.4867    0.0000 </r>
       <r>   26.5904    0.0000 </r>
       <r>   26.5967    0.0000 </r>
       <r>   27.0888    0.0000 </r>
       <r>   27.5618    0.0000 </r>
       <r>   28.3656    0.0000 </r>
       <r>   28.3985    0.0000 </r>
       <r>   28.4702    0.0000 </r>
       <r>   28.6480    0.0000 </r>
       <r>   29.3802    0.0000 </r>
       <r>   29.6523    0.0000 </r>
       <r>   29.6837    0.0000 </r>
       <r>   30.0849    0.0000 </r>
       <r>   30.1567    0.0000 </r>
       <r>   30.9325    0.0000 </r>
       <r>   31.5126    0.0000 </r>
       <r>   31.8260    0.0000 </r>
       <r>   32.5822    0.0000 </r>
       <r>   32.9448    0.0000 </r>
       <r>   33.1956    0.0000 </r>
       <r>   34.4418    0.0000 </r>
       <r>   34.6111    0.0000 </r>
       <r>   34.6642    0.0000 </r>
       <r>   34.9523    0.0000 </r>
       <r>   36.1834    0.0000 </r>
       <r>   36.3464    0.0000 </r>
       <r>   36.7619    0.0000 </r>
       <r>   37.3152    0.0000 </r>
       <r>   37.3519    0.0000 </r>
       <r>   37.7657    0.0000 </r>
       <r>   37.7697    0.0000 </r>
       <r>   38.8432    0.0000 </r>
       <r>   39.2944    0.0000 </r>
       <r>   39.5357    0.0000 </r>
       <r>   39.8171    0.0000 </r>
       <r>   40.2199    0.0000 </r>
       <r>   40.3082    0.0000 </r>
       <r>   40.3195    0.0000 </r>
       <r>   40.9903    0.0000 </r>
       <r>   41.0161    0.0000 </r>
       <r>   41.4960    0.0000 </r>
       <r>   42.1039    0.0000 </r>
       <r>   43.1207    0.0000 </r>
       <r>   43.1707    0.0000 </r>
       <r>   43.2315    0.0000 </r>
       <r>   43.5072    0.0000 </r>
       <r>   45.0272    0.0000 </r>
       <r>   45.2309    0.0000 </r>
       <r>   46.0170    0.0000 </r>
       <r>   46.0794    0.0000 </r>
       <r>   46.1890    0.0000 </r>
       <r>   46.7585    0.0000 </r>
       <r>   47.5139    0.0000 </r>
       <r>   47.6481    0.0000 </r>
       <r>   48.1669    0.0000 </r>
       <r>   48.6804    0.0000 </r>
       <r>   49.4474    0.0000 </r>
       <r>   49.8012    0.0000 </r>
       <r>   51.0588    0.0000 </r>
       <r>   51.1281    0.0000 </r>
       <r>   51.4927    0.0000 </r>
      </set>
      <set comment="kpoint 6">
       <r>  -14.6869    1.0000 </r>
       <r>  -13.3747    1.0000 </r>
       <r>   -6.1511    1.0000 </r>
       <r>   -4.0493    1.0000 </r>
       <r>   -3.3754    1.0000 </r>
       <r>   -3.2853    1.0000 </r>
       <r>   -2.7399    1.0000 </r>
       <r>   -1.6323    1.0000 </r>
       <r>   -0.6077    1.0000 </r>
       <r>    1.9625    0.0000 </r>
       <r>    2.0547    0.0000 </r>
       <r>    2.2821    0.0000 </r>
       <r>    2.5539    0.0000 </r>
       <r>    4.7790    0.0000 </r>
       <r>    6.0746    0.0000 </r>
       <r>    6.6551    0.0000 </r>
       <r>    8.0781    0.0000 </r>
       <r>    9.4588    0.0000 </r>
       <r>    9.8368    0.0000 </r>
       <r>   11.0909    0.0000 </r>
       <r>   11.1185    0.0000 </r>
       <r>   11.8838    0.0000 </r>
       <r>   12.4347    0.0000 </r>
       <r>   12.7667    0.0000 </r>
       <r>   13.9905    0.0000 </r>
       <r>   14.9421    0.0000 </r>
       <r>   15.2970    0.0000 </r>
       <r>   16.0932    0.0000 </r>
       <r>   16.5996    0.0000 </r>
       <r>   17.9657    0.0000 </r>
       <r>   19.0590    0.0000 </r>
       <r>   19.6437    0.0000 </r>
       <r>   20.0348    0.0000 </r>
       <r>   20.6108    0.0000 </r>
       <r>   20.8638    0.0000 </r>
       <r>   21.4062    0.0000 </r>
       <r>   21.8216    0.0000 </r>
       <r>   22.0489    0.0000 </r>
       <r>   22.7704    0.0000 </r>
       <r>   22.8339    0.0000 </r>
       <r>   23.1839    0.0000 </r>
       <r>   23.4150    0.0000 </r>
       <r>   23.5578    0.0000 </r>
       <r>   24.6513    0.0000 </r>
       <r>   25.4867    0.0000 </r>
       <r>   26.1073    0.0000 </r>
       <r>   26.5633    0.0000 </r>
[...]
       <r>    40.7676     4.2410   166.2397 </r>
       <r>    40.8042     5.4925   166.4409 </r>
       <r>    40.8409     6.2859   166.6711 </r>
       <r>    40.8775     5.0393   166.8556 </r>
       <r>    40.9141     6.7415   167.1025 </r>
       <r>    40.9507     6.7022   167.3480 </r>
       <r>    40.9873     6.3053   167.5789 </r>
       <r>    41.0240     5.0527   167.7639 </r>
       <r>    41.0606     5.7854   167.9758 </r>
       <r>    41.0972     4.9077   168.1555 </r>
       <r>    41.1338     4.8427   168.3329 </r>
       <r>    41.1705     3.6400   168.4662 </r>
       <r>    41.2071     6.3756   168.6997 </r>
       <r>    41.2437     5.7593   168.9106 </r>
       <r>    41.2803     7.9015   169.2000 </r>
       <r>    41.3169     4.9588   169.3816 </r>
       <r>    41.3536     5.0027   169.5648 </r>
       <r>    41.3902     4.2240   169.7195 </r>
       <r>    41.4268     6.1742   169.9456 </r>
       <r>    41.4634     4.5894   170.1137 </r>
       <r>    41.5001     4.8063   170.2897 </r>
       <r>    41.5367     5.9087   170.5061 </r>
       <r>    41.5733     3.0037   170.6161 </r>
       <r>    41.6099     5.1807   170.8058 </r>
       <r>    41.6465     3.7296   170.9424 </r>
       <r>    41.6832     5.3149   171.1371 </r>
       <r>    41.7198     7.0473   171.3952 </r>
       <r>    41.7564     5.4410   171.5944 </r>
       <r>    41.7930     5.7582   171.8053 </r>
       <r>    41.8297     3.5193   171.9342 </r>
       <r>    41.8663     5.3026   172.1284 </r>
       <r>    41.9029     6.2040   172.3556 </r>
       <r>    41.9395     5.0669   172.5411 </r>
       <r>    41.9762     3.0702   172.6536 </r>
       <r>    42.0128     2.8254   172.7570 </r>
       <r>    42.0494     4.1866   172.9104 </r>
       <r>    42.0860     5.4466   173.1098 </r>
       <r>    42.1226     6.2735   173.3396 </r>
       <r>    42.1593     4.5848   173.5075 </r>
       <r>    42.1959     3.0007   173.6174 </r>
       <r>    42.2325     7.3723   173.8874 </r>
       <r>    42.2691     4.3460   174.0465 </r>
       <r>    42.3058     4.8435   174.2239 </r>
       <r>    42.3424     4.4391   174.3865 </r>
       <r>    42.3790     4.8261   174.5632 </r>
       <r>    42.4156     3.4453   174.6894 </r>
       <r>    42.4522     5.5424   174.8924 </r>
       <r>    42.4889     7.7881   175.1776 </r>
       <r>    42.5255     4.9528   175.3590 </r>
       <r>    42.5621     4.7290   175.5322 </r>
       <r>    42.5987     4.7317   175.7055 </r>
       <r>    42.6354     4.4462   175.8683 </r>
       <r>    42.6720     4.1497   176.0203 </r>
       <r>    42.7086     3.3563   176.1432 </r>
       <r>    42.7452     4.2762   176.2998 </r>
       <r>    42.7818     3.7289   176.4364 </r>
       <r>    42.8185     6.5516   176.6763 </r>
       <r>    42.8551     6.2948   176.9068 </r>
       <r>    42.8917     4.5749   177.0744 </r>
       <r>    42.9283     5.6640   177.2818 </r>
       <r>    42.9650     6.7562   177.5292 </r>
       <r>    43.0016     4.7000   177.7014 </r>
       <r>    43.0382     4.7401   177.8750 </r>
       <r>    43.0748     5.8220   178.0882 </r>
       <r>    43.1114     4.2227   178.2428 </r>
       <r>    43.1481     4.8360   178.4199 </r>
       <r>    43.1847     3.9435   178.5643 </r>
       <r>    43.2213     2.7244   178.6641 </r>
       <r>    43.2579     4.1178   178.8149 </r>
       <r>    43.2946     4.5178   178.9804 </r>
       <r>    43.3312     5.0286   179.1645 </r>
       <r>    43.3678     5.2753   179.3577 </r>
       <r>    43.4044     4.0475   179.5060 </r>
       <r>    43.4411     5.4907   179.7070 </r>
       <r>    43.4777     6.7766   179.9552 </r>
       <r>    43.5143     7.9664   180.2470 </r>
       <r>    43.5509     6.3601   180.4799 </r>
       <r>    43.5875     4.6870   180.6515 </r>
       <r>    43.6242     6.5360   180.8909 </r>
       <r>    43.6608     6.8682   181.1424 </r>
       <r>    43.6974     5.5287   181.3449 </r>
       <r>    43.7340     7.7203   181.6276 </r>
       <r>    43.7707     6.0695   181.8499 </r>
       <r>    43.8073     6.4823   182.0873 </r>
       <r>    43.8439     4.9756   182.2695 </r>
       <r>    43.8805     4.7486   182.4434 </r>
       <r>    43.9171     5.3364   182.6389 </r>
       <r>    43.9538     8.0608   182.9341 </r>
       <r>    43.9904     6.0094   183.1542 </r>
       <r>    44.0270     4.3725   183.3143 </r>
       <r>    44.0636     3.7960   183.4533 </r>
       <r>    44.1003     4.4827   183.6175 </r>
       <r>    44.1369     4.3269   183.7759 </r>
       <r>    44.1735     4.5267   183.9417 </r>
       <r>    44.2101     3.7792   184.0801 </r>
       <r>    44.2467     4.6700   184.2511 </r>
       <r>    44.2834     3.4846   184.3788 </r>
       <r>    44.3200     3.4815   184.5063 </r>
       <r>    44.3566     5.1778   184.6959 </r>
       <r>    44.3932     5.1069   184.8829 </r>
       <r>    44.4299     7.0003   185.1393 </r>
       <r>    44.4665     4.3825   185.2998 </r>
       <r>    44.5031     6.4281   185.5352 </r>
       <r>    44.5397     5.7102   185.7443 </r>
       <r>    44.5763     4.0371   185.8922 </r>
       <r>    44.6130     6.6144   186.1344 </r>
       <r>    44.6496     4.2142   186.2887 </r>
       <r>    44.6862     5.8841   186.5042 </r>
       <r>    44.7228     3.4854   186.6319 </r>
       <r>    44.7595     4.4407   186.7945 </r>
       <r>    44.7961     4.1341   186.9459 </r>
       <r>    44.8327     7.6879   187.2274 </r>
       <r>    44.8693     6.5582   187.4676 </r>
       <r>    44.9059     6.3213   187.6991 </r>
       <r>    44.9426     5.1445   187.8875 </r>
       <r>    44.9792     5.9276   188.1046 </r>
       <r>    45.0158     6.6285   188.3474 </r>
       <r>    45.0524     4.9313   188.5280 </r>
       <r>    45.0891     3.7683   188.6660 </r>
       <r>    45.1257     5.9811   188.8850 </r>
       <r>    45.1623     5.2435   189.0770 </r>
       <r>    45.1989     5.1101   189.2642 </r>
       <r>    45.2356     4.9027   189.4437 </r>
       <r>    45.2722     6.4861   189.6813 </r>
       <r>    45.3088     5.0970   189.8679 </r>
       <r>    45.3454     4.2546   190.0237 </r>
       <r>    45.3820     6.3321   190.2556 </r>
       <r>    45.4187     4.7595   190.4299 </r>
       <r>    45.4553     3.6363   190.5631 </r>
       <r>    45.4919     7.8313   190.8499 </r>
       <r>    45.5285     5.8499   191.0641 </r>
       <r>    45.5652     4.6353   191.2339 </r>
       <r>    45.6018     4.9511   191.4152 </r>
       <r>    45.6384     5.0552   191.6004 </r>
       <r>    45.6750     5.6222   191.8063 </r>
       <r>    45.7116     4.4752   191.9701 </r>
       <r>    45.7483     2.8527   192.0746 </r>
       <r>    45.7849     4.7594   192.2489 </r>
       <r>    45.8215     4.7224   192.4219 </r>
       <r>    45.8581     5.0075   192.6053 </r>
       <r>    45.8948     5.4721   192.8057 </r>
       <r>    45.9314     5.4389   193.0048 </r>
       <r>    45.9680     4.6067   193.1736 </r>
       <r>    46.0046     3.9091   193.3167 </r>
       <r>    46.0412     4.0454   193.4649 </r>
       <r>    46.0779     8.9769   193.7936 </r>
       <r>    46.1145     6.9589   194.0485 </r>
       <r>    46.1511     6.9623   194.3035 </r>
       <r>    46.1877     5.7624   194.5145 </r>
       <r>    46.2244     7.1649   194.7769 </r>
       <r>    46.2610     6.0473   194.9983 </r>
       <r>    46.2976     6.3017   195.2291 </r>
       <r>    46.3342     6.3003   195.4599 </r>
       <r>    46.3708     4.6211   195.6291 </r>
       <r>    46.4075     7.5678   195.9063 </r>
       <r>    46.4441     4.7199   196.0791 </r>
       <r>    46.4807     5.0462   196.2639 </r>
       <r>    46.5173     4.9180   196.4440 </r>
       <r>    46.5540     4.0747   196.5932 </r>
       <r>    46.5906     6.5831   196.8343 </r>
       <r>    46.6272     4.6231   197.0036 </r>
       <r>    46.6638     4.0828   197.1532 </r>
       <r>    46.7004     4.7631   197.3276 </r>
       <r>    46.7371     7.7126   197.6101 </r>
       <r>    46.7737     5.5606   197.8137 </r>
       <r>    46.8103     4.6258   197.9831 </r>
       <r>    46.8469     3.2013   198.1003 </r>
       <r>    46.8836     6.6382   198.3435 </r>
       <r>    46.9202     5.3910   198.5409 </r>
       <r>    46.9568     4.3774   198.7012 </r>
       <r>    46.9934     7.0988   198.9612 </r>
       <r>    47.0301     5.7560   199.1720 </r>
       <r>    47.0667     3.3044   199.2930 </r>
       <r>    47.1033     6.2571   199.5221 </r>
       <r>    47.1399     5.7576   199.7330 </r>
       <r>    47.1765     7.0569   199.9914 </r>
       <r>    47.2132     6.7556   200.2388 </r>
       <r>    47.2498     4.5128   200.4041 </r>
       <r>    47.2864     6.7294   200.6506 </r>
       <r>    47.3230     6.4770   200.8878 </r>
       <r>    47.3597     5.4058   201.0857 </r>
       <r>    47.3963     4.8126   201.2620 </r>
       <r>    47.4329     2.6546   201.3592 </r>
       <r>    47.4695     4.9586   201.5408 </r>
       <r>    47.5061     4.1414   201.6925 </r>
       <r>    47.5428     7.3636   201.9621 </r>
       <r>    47.5794     6.9612   202.2171 </r>
       <r>    47.6160     4.7031   202.3893 </r>
       <r>    47.6526     5.7259   202.5990 </r>
       <r>    47.6893     6.0311   202.8199 </r>
       <r>    47.7259     3.2891   202.9403 </r>
       <r>    47.7625     5.6331   203.1466 </r>
       <r>    47.7991     5.8025   203.3591 </r>
       <r>    47.8357     6.4793   203.5964 </r>
       <r>    47.8724     6.3048   203.8273 </r>
       <r>    47.9090     5.4121   204.0255 </r>
       <r>    47.9456     4.6893   204.1973 </r>
       <r>    47.9822     6.2906   204.4276 </r>
       <r>    48.0189     6.8457   204.6784 </r>
       <r>    48.0555     4.6540   204.8488 </r>
       <r>    48.0921     8.2462   205.1508 </r>
       <r>    48.1287     7.8440   205.4381 </r>
       <r>    48.1653     3.6806   205.5728 </r>
       <r>    48.2020     6.8444   205.8235 </r>
       <r>    48.2386     4.5501   205.9901 </r>
       <r>    48.2752     4.9164   206.1702 </r>
       <r>    48.3118     5.8213   206.3834 </r>
       <r>    48.3485     5.3832   206.5805 </r>
       <r>    48.3851     4.4530   206.7436 </r>
       <r>    48.4217     7.1457   207.0053 </r>
       <r>    48.4583     7.7551   207.2893 </r>
       <r>    48.4950     5.1743   207.4788 </r>
       <r>    48.5316     4.6219   207.6481 </r>
       <r>    48.5682     5.5445   207.8511 </r>
       <r>    48.6048     5.0688   208.0368 </r>
       <r>    48.6414     4.7217   208.2097 </r>
       <r>    48.6781     4.8648   208.3878 </r>
       <r>    48.7147     4.2466   208.5434 </r>
       <r>    48.7513     6.1052   208.7670 </r>
       <r>    48.7879     4.2325   208.9220 </r>
       <r>    48.8246     6.1989   209.1490 </r>
       <r>    48.8612     3.4414   209.2750 </r>
       <r>    48.8978     4.5926   209.4432 </r>
       <r>    48.9344     5.3042   209.6375 </r>
       <r>    48.9710     6.7704   209.8854 </r>
       <r>    49.0077     7.6483   210.1655 </r>
       <r>    49.0443     5.1482   210.3540 </r>
       <r>    49.0809     6.3236   210.5856 </r>
       <r>    49.1175     7.6741   210.8667 </r>
       <r>    49.1542     3.8312   211.0070 </r>
       <r>    49.1908     4.6584   211.1776 </r>
       <r>    49.2274     4.8039   211.3535 </r>
       <r>    49.2640     6.4710   211.5905 </r>
       <r>    49.3006     2.9909   211.7000 </r>
       <r>    49.3373     4.2917   211.8572 </r>
       <r>    49.3739     5.5875   212.0618 </r>
       <r>    49.4105     5.9774   212.2807 </r>
       <r>    49.4471     4.8887   212.4598 </r>
       <r>    49.4838     2.6855   212.5581 </r>
       <r>    49.5204     2.2304   212.6398 </r>
       <r>    49.5570     3.1118   212.7538 </r>
       <r>    49.5936     3.5217   212.8827 </r>
       <r>    49.6302     4.2234   213.0374 </r>
       <r>    49.6669     3.7330   213.1741 </r>
       <r>    49.7035     3.8346   213.3146 </r>
       <r>    49.7401     3.4082   213.4394 </r>
       <r>    49.7767     5.4498   213.6390 </r>
       <r>    49.8134     3.6007   213.7708 </r>
       <r>    49.8500     1.1485   213.8129 </r>
       <r>    49.8866     2.5658   213.9069 </r>
       <r>    49.9232     2.7389   214.0072 </r>
       <r>    49.9598     2.0936   214.0838 </r>
       <r>    49.9965     2.9101   214.1904 </r>
       <r>    50.0331     2.4421   214.2798 </r>
       <r>    50.0697     1.3318   214.3286 </r>
       <r>    50.1063     2.4632   214.4188 </r>
       <r>    50.1430     2.9883   214.5283 </r>
       <r>    50.1796     2.2427   214.6104 </r>
       <r>    50.2162     2.5476   214.7037 </r>
       <r>    50.2528     2.4785   214.7945 </r>
       <r>    50.2895     1.4334   214.8470 </r>
       <r>    50.3261     1.1300   214.8883 </r>
       <r>    50.3627     1.0420   214.9265 </r>
       <r>    50.3993     0.9403   214.9609 </r>
       <r>    50.4359     1.8308   215.0280 </r>
       <r>    50.4726     1.0837   215.0677 </r>
       <r>    50.5092     0.4796   215.0852 </r>
       <r>    50.5458     0.7101   215.1112 </r>
       <r>    50.5824     0.7634   215.1392 </r>
       <r>    50.6191     0.7044   215.1650 </r>
       <r>    50.6557     0.7537   215.1926 </r>
       <r>    50.6923     0.9202   215.2263 </r>
       <r>    50.7289     1.1926   215.2700 </r>
       <r>    50.7655     0.9053   215.3031 </r>
       <r>    50.8022     1.1621   215.3457 </r>
       <r>    50.8388     0.6039   215.3678 </r>
       <r>    50.8754     0.8489   215.3989 </r>
       <r>    50.9120     0.4209   215.4143 </r>
       <r>    50.9487     0.2259   215.4226 </r>
       <r>    50.9853     0.5478   215.4426 </r>
       <r>    51.0219     1.2339   215.4878 </r>
       <r>    51.0585     0.7336   215.5147 </r>
       <r>    51.0951     0.3340   215.5269 </r>
       <r>    51.1318     0.7823   215.5556 </r>
       <r>    51.1684     2.1192   215.6332 </r>
       <r>    51.2050     1.2647   215.6795 </r>
       <r>    51.2416     0.5068   215.6981 </r>
       <r>    51.2783     0.4704   215.7153 </r>
       <r>    51.3149     0.9237   215.7491 </r>
       <r>    51.3515     0.7433   215.7763 </r>
       <r>    51.3881     1.4335   215.8288 </r>
       <r>    51.4247     1.5898   215.8871 </r>
       <r>    51.4614     1.0941   215.9271 </r>
       <r>    51.4980     1.0370   215.9651 </r>
       <r>    51.5346     0.3383   215.9775 </r>
       <r>    51.5712     0.1231   215.9820 </r>
       <r>    51.6079     0.2866   215.9925 </r>
       <r>    51.6445     0.0519   215.9944 </r>
       <r>    51.6811     0.1529   216.0000 </r>
       <r>    51.7177     0.0000   216.0000 </r>
       <r>    51.7544     0.0000   216.0000 </r>
       <r>    51.7910     0.0000   216.0000 </r>
       <r>    51.8276     0.0000   216.0000 </r>
       <r>    51.8642     0.0000   216.0000 </r>
       <r>    51.9008     0.0000   216.0000 </r>
       <r>    51.9375     0.0000   216.0000 </r>
       <r>    51.9741     0.0000   216.0000 </r>
       <r>    52.0107     0.0000   216.0000 </r>
       <r>    52.0473     0.0000   216.0000 </r>
       <r>    52.0840     0.0000   216.0000 </r>
       <r>    52.1206     0.0000   216.0000 </r>
       <r>    52.1572     0.0000   216.0000 </r>
       <r>    52.1938     0.0000   216.0000 </r>
       <r>    52.2304     0.0000   216.0000 </r>
       <r>    52.2671     0.0000   216.0000 </r>
       <r>    52.3037     0.0000   216.0000 </r>
       <r>    52.3403     0.0000   216.0000 </r>
       <r>    52.3769     0.0000   216.0000 </r>
       <r>    52.4136     0.0000   216.0000 </r>
       <r>    52.4502     0.0000   216.0000 </r>
       <r>    52.4868     0.0000   216.0000 </r>
       <r>    52.5234     0.0000   216.0000 </r>
       <r>    52.5600     0.0000   216.0000 </r>
       <r>    52.5967     0.0000   216.0000 </r>
       <r>    52.6333     0.0000   216.0000 </r>
       <r>    52.6699     0.0000   216.0000 </r>
       <r>    52.7065     0.0000   216.0000 </r>
       <r>    52.7432     0.0000   216.0000 </r>
       <r>    52.7798     0.0000   216.0000 </r>
       <r>    52.8164     0.0000   216.0000 </r>
       <r>    52.8530     0.0000   216.0000 </r>
       <r>    52.8896     0.0000   216.0000 </r>
       <r>    52.9263     0.0000   216.0000 </r>
       <r>    52.9629     0.0000   216.0000 </r>
       <r>    52.9995     0.0000   216.0000 </r>
       <r>    53.0361     0.0000   216.0000 </r>
       <r>    53.0728     0.0000   216.0000 </r>
       <r>    53.1094     0.0000   216.0000 </r>
       <r>    53.1460     0.0000   216.0000 </r>
       <r>    53.1826     0.0000   216.0000 </r>
       <r>    53.2192     0.0000   216.0000 </r>
       <r>    53.2559     0.0000   216.0000 </r>
       <r>    53.2925     0.0000   216.0000 </r>
       <r>    53.3291     0.0000   216.0000 </r>
       <r>    53.3657     0.0000   216.0000 </r>
       <r>    53.4024     0.0000   216.0000 </r>
       <r>    53.4390     0.0000   216.0000 </r>
       <r>    53.4756     0.0000   216.0000 </r>
       <r>    53.5122     0.0000   216.0000 </r>
       <r>    53.5489     0.0000   216.0000 </r>
       <r>    53.5855     0.0000   216.0000 </r>
       <r>    53.6221     0.0000   216.0000 </r>
       <r>    53.6587     0.0000   216.0000 </r>
       <r>    53.6953     0.0000   216.0000 </r>
       <r>    53.7320     0.0000   216.0000 </r>
       <r>    53.7686     0.0000   216.0000 </r>
       <r>    53.8052     0.0000   216.0000 </r>
       <r>    53.8418     0.0000   216.0000 </r>
       <r>    53.8785     0.0000   216.0000 </r>
       <r>    53.9151     0.0000   216.0000 </r>
       <r>    53.9517     0.0000   216.0000 </r>
       <r>    53.9883     0.0000   216.0000 </r>
       <r>    54.0249     0.0000   216.0000 </r>
       <r>    54.0616     0.0000   216.0000 </r>
       <r>    54.0982     0.0000   216.0000 </r>
       <r>    54.1348     0.0000   216.0000 </r>
       <r>    54.1714     0.0000   216.0000 </r>
       <r>    54.2081     0.0000   216.0000 </r>
       <r>    54.2447     0.0000   216.0000 </r>
       <r>    54.2813     0.0000   216.0000 </r>
       <r>    54.3179     0.0000   216.0000 </r>
       <r>    54.3545     0.0000   216.0000 </r>
       <r>    54.3912     0.0000   216.0000 </r>
       <r>    54.4278     0.0000   216.0000 </r>
       <r>    54.4644     0.0000   216.0000 </r>
       <r>    54.5010     0.0000   216.0000 </r>
       <r>    54.5377     0.0000   216.0000 </r>
       <r>    54.5743     0.0000   216.0000 </r>
       <r>    54.6109     0.0000   216.0000 </r>
       <r>    54.6475     0.0000   216.0000 </r>
       <r>    54.6841     0.0000   216.0000 </r>
       <r>    54.7208     0.0000   216.0000 </r>
       <r>    54.7574     0.0000   216.0000 </r>
       <r>    54.7940     0.0000   216.0000 </r>
       <r>    54.8306     0.0000   216.0000 </r>
       <r>    54.8673     0.0000   216.0000 </r>
       <r>    54.9039     0.0000   216.0000 </r>
       <r>    54.9405     0.0000   216.0000 </r>
       <r>    54.9771     0.0000   216.0000 </r>
      </set>
     </set>
    </array>
   </total>
  </dos>
 </calculation>
 <structure name="finalpos" >
  <crystal>
   <varray name="basis" >
    <v>       1.59500000      -2.76297065       0.00000000 </v>
    <v>       1.59500000       2.76297065       0.00000000 </v>
    <v>       0.00000000       0.00000000      12.41171580 </v>
   </varray>
   <i name="volume">    109.39532864 </i>
   <varray name="rec_basis" >
    <v>       0.31347962      -0.18096464       0.00000000 </v>
    <v>       0.31347962       0.18096464       0.00000000 </v>
    <v>       0.00000000       0.00000000       0.08056904 </v>
   </varray>
  </crystal>
  <varray name="positions" >
   <v>       0.66664498       0.33335502       0.75000054 </v>
   <v>       0.33335502       0.66664498       0.62899679 </v>
   <v>       0.33335502       0.66664498       0.87099696 </v>
  </varray>
 </structure>
</modeling>
